38
# CELL(abcABC):  105.20000   105.20000   105.20000    90.00000    90.00000    90.00000  Step:           0  Bead:       0 velocities{atomic_unit}  cell{angstrom}
       N -4.41949e-04  1.48484e-05 -2.43927e-04
       N -1.32211e-05 -3.72283e-05 -8.46208e-05
       N  1.02817e-05  9.00488e-05  4.36576e-05
       N  4.09384e-04  2.23533e-04 -1.45257e-04
       C -6.74225e-05  2.39708e-04  2.32407e-05
       C -2.38436e-04  3.41291e-05  2.17292e-05
       C -1.19197e-04 -3.11284e-05 -2.18299e-05
       C  7.58369e-05 -6.99998e-05  9.66383e-05
       C -1.01431e-04 -1.78803e-04 -3.71151e-05
       C  1.09991e-04  9.17504e-05  4.27064e-05
       C  2.45224e-05 -2.55055e-04 -3.43905e-04
       C  2.49085e-04  1.32954e-04  4.91637e-05
       C -1.07222e-05 -3.77254e-04 -2.22073e-04
       C  1.54217e-04 -3.03114e-04  1.09344e-04
       C  5.28539e-04  9.41966e-05  2.46603e-04
       C -6.61191e-06  8.60943e-05  1.49722e-05
       C -2.67165e-04 -3.54732e-04 -7.22066e-07
       C  1.37079e-05 -7.51966e-05  2.17715e-04
       C  2.67628e-04  4.26884e-04  1.62987e-04
       C  2.09496e-04  3.20727e-05  8.06527e-05
       C -3.20125e-04  2.15133e-04  8.82514e-05
       C -3.91885e-05  2.34697e-04 -2.45490e-04
       C  1.28984e-04 -8.25251e-05  5.61610e-05
       C -2.34881e-04 -2.24715e-04 -7.57746e-06
       H -1.19903e-03 -4.16952e-05  5.96070e-04
       H  2.04593e-04  1.22271e-03  4.13901e-04
       H -6.70892e-04 -6.61161e-04 -4.00744e-04
       H -1.31866e-03  4.66182e-04 -5.69250e-04
       H -4.07209e-04 -4.17741e-04 -3.45430e-04
       H  1.01581e-03 -4.48228e-04  1.31061e-03
       H  1.59309e-04  8.40135e-04  1.15762e-03
       H -1.29119e-03 -1.77508e-04  3.48325e-04
       H -7.18553e-04 -6.57920e-04 -3.24776e-05
       H  9.53938e-04 -3.82806e-04 -1.60487e-04
       H -7.11548e-04  5.61806e-04  7.06287e-05
       H -3.72612e-04 -4.28483e-04 -1.38883e-04
       H  6.98880e-04 -1.27394e-04  4.07393e-04
       H -1.01429e-04  5.53648e-04 -6.29394e-04
38
# CELL(abcABC):  105.20000   105.20000   105.20000    90.00000    90.00000    90.00000  Step:          10  Bead:       0 velocities{atomic_unit}  cell{angstrom}
       N -3.12053e-04  7.01398e-05 -2.20099e-04
       N  3.36602e-05  1.42210e-04 -6.16337e-05
       N -1.32613e-05 -1.26689e-05  5.17114e-05
       N  2.63076e-04  1.31386e-04 -1.16589e-04
       C -1.00956e-04  2.89065e-05  3.45877e-06
       C -8.86534e-05  5.99099e-05  7.73380e-06
       C -1.57686e-04 -1.18570e-04 -3.81404e-05
       C  4.27399e-05 -8.14795e-05  1.01425e-04
       C -1.80883e-04 -1.59411e-04 -5.22168e-05
       C  5.00637e-05  9.91017e-05  3.71393e-05
       C -9.76378e-05 -1.58550e-04 -3.20957e-04
       C  1.96842e-04  9.48860e-05  7.54647e-05
       C  3.99151e-06 -1.51402e-05 -1.67146e-04
       C -4.65404e-05 -1.91849e-04  1.21444e-04
       C  1.41996e-04  1.42366e-04  2.28427e-04
       C  2.17053e-04  1.90788e-04  8.57004e-06
       C -1.10699e-04 -1.29658e-04  2.28865e-06
       C  1.28555e-04 -7.54493e-05  1.82583e-04
       C  4.10214e-05 -1.38149e-05  1.32914e-04
       C  2.61178e-04 -1.68275e-04  7.07364e-05
       C -6.37027e-05  2.12028e-04  9.23688e-05
       C -1.60101e-04  2.94976e-05 -2.32639e-04
       C  2.56040e-05 -1.70295e-05  6.72980e-05
       C -1.15695e-04 -7.07112e-05 -1.72631e-05
       H -3.24526e-04 -3.35368e-04  3.34699e-04
       H -3.95624e-04 -3.54546e-04  1.21935e-04
       H -2.55479e-04  4.97041e-04 -2.79210e-04
       H -3.87140e-04 -5.41606e-04 -4.77956e-04
       H  1.08058e-04 -4.27902e-04 -3.70657e-04
       H  2.37742e-04 -4.14731e-04  1.02876e-03
       H  2.33605e-04 -8.03489e-05  8.33384e-04
       H  1.00836e-03  4.12828e-04  2.88058e-04
       H  1.23315e-03  6.47752e-04  6.67565e-05
       H -4.63613e-04  2.79301e-04 -5.64675e-05
       H -3.46700e-04 -3.01637e-04  6.51802e-05
       H -6.95160e-05  7.84892e-04 -1.44340e-04
       H -1.80738e-04 -5.38052e-04  2.83566e-04
       H  1.60525e-04 -1.47545e-04 -4.93480e-04
38
# CELL(abcABC):  105.20000   105.20000   105.20000    90.00000    90.00000    90.00000  Step:          20  Bead:       0 velocities{atomic_unit}  cell{angstrom}
       N  1.25669e-05 -5.61826e-06 -1.74579e-04
       N -4.22578e-05  1.28692e-04 -3.50099e-05
       N -1.05054e-04 -8.56023e-05  7.83954e-05
       N  6.78557e-05  4.58789e-05 -3.66589e-05
       C -1.76309e-04 -2.60808e-04 -3.90609e-05
       C  1.94356e-04  8.86668e-05 -2.82351e-05
       C -1.29119e-04 -7.83706e-05 -8.86854e-05
       C  2.97024e-07  1.49828e-05  1.14029e-04
       C -1.96360e-04  1.13815e-04 -7.79423e-05
       C  3.32544e-05 -1.07557e-04 -1.61683e-06
       C -2.41180e-04 -6.79563e-05 -2.61090e-04
       C -5.59565e-05 -9.81583e-05  1.53505e-04
       C  3.49598e-05  2.59696e-04 -2.95296e-05
       C  9.86633e-05  1.14175e-04  1.42815e-04
       C -2.72549e-04  1.35925e-04  1.69992e-04
       C  2.52110e-04  2.75798e-04 -1.92949e-05
       C  1.86786e-04  2.02543e-04  1.22430e-05
       C  3.04117e-04 -5.33198e-05  9.08378e-05
       C  8.15802e-05 -3.08315e-04  7.32649e-05
       C  5.92529e-05 -2.58900e-04  5.90421e-05
       C  3.50195e-04  2.02269e-06  9.71015e-05
       C -1.54740e-04  2.73466e-05 -1.73208e-04
       C -2.34669e-04  3.34881e-06  8.18227e-05
       C  1.28891e-04  4.76531e-05 -4.64066e-05
       H  4.27846e-04  4.25862e-04 -6.33530e-05
       H  2.73785e-04 -1.24364e-04 -1.95263e-04
       H -3.22620e-04 -4.47990e-04 -2.14402e-04
       H  7.70865e-04  6.24331e-04  5.43102e-05
       H -3.56448e-04  3.56266e-04 -3.82494e-04
       H -2.94391e-06  5.22315e-04  2.22609e-04
       H -7.92918e-04 -7.84879e-04 -8.21206e-05
       H -8.17880e-04 -8.21527e-04  1.54038e-04
       H -1.40049e-03 -2.34851e-04  2.13600e-04
       H  8.64074e-04 -4.37595e-04  1.60836e-04
       H  1.97413e-05  3.06523e-04  1.58685e-04
       H -5.64057e-04 -6.49753e-04 -3.61335e-04
       H  1.89244e-04 -8.83113e-08  1.02160e-04
       H -4.99515e-04 -5.19149e-04 -1.70460e-04
38
# CELL(abcABC):  105.20000   105.20000   105.20000    90.00000    90.00000    90.00000  Step:          30  Bead:       0 velocities{atomic_unit}  cell{angstrom}
       N  2.39027e-04 -1.16251e-04 -1.06435e-04
       N -4.98710e-05 -3.98648e-06 -9.83832e-06
       N -1.17689e-04  6.02519e-05  1.16070e-04
       N  6.45965e-05  6.90771e-05  6.27788e-05
       C -6.69877e-05 -1.36247e-04 -7.60140e-05
       C  8.45811e-05  4.17897e-05 -7.55094e-05
       C -3.57042e-05  1.52677e-04 -1.66275e-04
       C  2.91460e-05  1.04573e-04  1.16747e-04
       C -1.79512e-04  1.35378e-05 -1.39618e-04
       C  2.53243e-05 -5.32759e-06 -5.36272e-06
       C -3.52492e-04  9.26557e-05 -1.81733e-04
       C -1.27541e-04 -2.04013e-04  2.14013e-04
       C -1.82266e-04 -6.06431e-05  6.43937e-05
       C -7.52313e-05 -1.77291e-05  1.57657e-04
       C -8.08577e-05  2.52262e-05  8.99484e-05
       C -2.39696e-04  1.91175e-04 -7.97882e-05
       C  2.27601e-04  1.80033e-04  2.40797e-05
       C  2.44385e-04 -8.07280e-05 -1.93677e-05
       C -2.92199e-04 -1.91348e-04  3.99083e-05
       C  1.97395e-04 -8.89796e-05  6.78239e-05
       C  2.33289e-04 -5.63875e-05  1.16239e-04
       C  2.00727e-05 -4.52701e-05 -1.09773e-04
       C  1.79868e-05  5.14664e-06  1.01179e-04
       C  9.49753e-05 -5.18113e-05 -8.57663e-05
       H  7.12809e-04  2.23755e-04 -5.10200e-04
       H  5.16055e-04  5.26680e-04 -3.78991e-04
       H  2.36726e-04  5.09099e-04  5.36917e-05
       H  1.43769e-03 -3.05277e-04  3.78958e-04
       H -8.24263e-06  1.28674e-04 -4.09988e-04
       H -1.02886e-03  3.47005e-04 -4.33493e-04
       H -8.26945e-05 -6.21633e-04 -7.94820e-04
       H  1.01883e-03  1.80128e-04  1.58972e-05
       H  8.97858e-04  2.67584e-04  3.82738e-04
       H -5.29229e-04  1.97921e-04  3.67834e-04
       H  1.12849e-03 -2.24338e-04  2.07607e-04
       H -2.21105e-04  7.65168e-04 -4.52529e-04
       H -5.56744e-04  2.10732e-04 -1.75845e-04
       H  4.19667e-05 -7.62827e-04  2.50605e-04
38
# CELL(abcABC):  105.20000   105.20000   105.20000    90.00000    90.00000    90.00000  Step:          40  Bead:       0 velocities{atomic_unit}  cell{angstrom}
       N  2.19274e-04 -1.00422e-04 -3.74577e-05
       N  1.20878e-04  3.25951e-05  1.53651e-05
       N  6.50157e-05  2.17811e-04  1.27429e-04
       N  1.04965e-04  2.66367e-05  1.33264e-04
       C  1.82613e-04  1.97897e-04 -1.03626e-04
       C -3.14912e-04  1.84769e-05 -1.11830e-04
       C  2.81662e-07  6.84645e-05 -2.53811e-04
       C  3.55470e-05 -4.70751e-05  9.55930e-05
       C -1.15787e-04 -2.21538e-05 -1.83096e-04
       C  9.03637e-05 -5.40531e-05  5.92278e-06
       C -1.33706e-04  2.44674e-04 -1.17771e-04
       C -1.89235e-04 -1.39965e-04  2.45057e-04
       C -2.46136e-04 -3.84666e-04  9.48421e-05
       C  1.05886e-04 -5.75488e-05  1.57684e-04
       C  4.14217e-05  2.16063e-05  1.71608e-05
       C -3.04311e-04  2.88507e-05 -1.29078e-04
       C -8.75540e-05 -3.47512e-06  5.32734e-05
       C  2.61659e-05 -1.03127e-04 -1.05351e-04
       C -1.42399e-04  1.28057e-04  4.51283e-05
       C  8.41005e-05  2.26274e-04  9.66772e-05
       C -5.45516e-05 -1.46816e-04  1.29044e-04
       C  1.00273e-04  2.23991e-04 -5.52452e-05
       C  3.46258e-04 -4.59871e-05  1.02695e-04
       C  4.43597e-05 -2.54732e-04 -1.05158e-04
       H -1.01107e-05 -5.58561e-04 -6.32492e-04
       H -6.36045e-04 -8.96775e-04 -3.80589e-04
       H  2.58032e-05 -6.96381e-04  8.63207e-05
       H  2.45173e-04  7.05557e-04  6.84863e-04
       H -6.03233e-04  6.23735e-05 -2.94622e-04
       H  2.67728e-05  2.65615e-04 -8.67299e-04
       H  4.76718e-05  6.59521e-04 -1.07565e-03
       H -1.07225e-03 -1.72862e-04  2.85898e-05
       H -6.97839e-04 -1.28678e-03  2.01018e-04
       H  6.81129e-04 -1.74401e-04  3.67530e-04
       H  1.07727e-03  5.54746e-04  2.95873e-04
       H -3.33362e-05 -5.06225e-04 -4.42841e-04
       H  3.58358e-04  8.20975e-04 -2.73380e-04
       H -1.67110e-04 -2.40187e-05  4.39427e-04
38
# CELL(abcABC):  105.20000   105.20000   105.20000    90.00000    90.00000    90.00000  Step:          50  Bead:       0 velocities{atomic_unit}  cell{angstrom}
       N -1.27918e-06  1.24847e-05  3.11978e-06
       N -1.08704e-05 -1.60226e-04  3.01960e-05
       N  1.90818e-04  2.21558e-04  1.03034e-04
       N  5.55750e-05 -8.27322e-05  1.59996e-04
       C  1.83261e-05  2.89742e-04 -1.24126e-04
       C -1.43468e-04  2.12099e-05 -1.31027e-04
       C  4.65422e-05 -2.43383e-04 -3.27660e-04
       C -4.31679e-05 -2.53797e-04  6.36696e-05
       C -2.66641e-05 -8.35402e-05 -2.16651e-04
       C -7.29666e-05  8.24073e-05  5.63462e-05
       C  4.63733e-05  1.78108e-04 -8.69162e-05
       C  2.58503e-05  6.43487e-05  2.07977e-04
       C -1.30632e-04 -8.28227e-05  9.21487e-05
       C -6.13957e-06  1.23000e-05  1.45353e-04
       C -9.09586e-05  1.08194e-04 -4.17631e-05
       C  9.94485e-05 -8.52867e-05 -1.37940e-04
       C -2.45670e-04 -7.42891e-05  1.14154e-04
       C -5.94385e-05 -3.97890e-05 -1.42351e-04
       C -2.24557e-04 -1.41435e-04  9.21909e-06
       C  3.97904e-05  1.06481e-04  1.16415e-04
       C  3.52306e-05 -3.29497e-05  1.38750e-04
       C -1.06357e-04  1.20016e-04 -1.82343e-05
       C  3.96725e-04  7.04946e-05  9.60581e-05
       C  4.69065e-06 -1.60645e-04 -1.07201e-04
       H -8.67215e-04 -5.92310e-05 -2.39977e-04
       H  3.50829e-04  8.69676e-04 -1.03236e-04
       H  1.31736e-04  4.35282e-04  1.42911e-04
       H -3.31458e-04 -7.22023e-04  5.60100e-04
       H  1.05552e-04 -2.49953e-04 -1.42931e-04
       H  1.71238e-06 -5.93032e-04 -6.83167e-04
       H  2.76797e-04  6.43249e-04 -8.24632e-04
       H  6.36433e-04  7.70132e-04  2.04502e-04
       H  9.09983e-04 -1.48510e-04  1.09799e-04
       H -4.34404e-04  6.53226e-04  3.19141e-04
       H  1.45340e-04 -5.00777e-04  2.12094e-04
       H  5.62412e-04  7.51607e-04 -3.08332e-04
       H  3.42897e-05 -1.04452e-04 -2.21822e-04
       H  4.30688e-04  1.02182e-04  3.58100e-04
38
# CELL(abcABC):  105.20000   105.20000   105.20000    90.00000    90.00000    90.00000  Step:          60  Bead:       0 velocities{atomic_unit}  cell{angstrom}
       N -2.23379e-04  2.08504e-04  1.64699e-05
       N -1.83229e-04  3.53687e-06  3.60073e-05
       N -1.33972e-05  1.21630e-04  6.25830e-05
       N  1.17239e-06 -1.44096e-04  1.36029e-04
       C -2.89912e-04  2.35605e-05 -1.38267e-04
       C  3.28082e-04 -4.20256e-05 -1.33169e-04
       C  7.58303e-05 -1.39887e-04 -3.33607e-04
       C -1.45243e-04 -1.06755e-04  4.45291e-05
       C  1.40967e-04  2.11010e-04 -2.20134e-04
       C -1.71912e-04 -5.26755e-05  1.23533e-04
       C  1.53109e-04 -3.12583e-04 -1.09011e-04
       C  9.46250e-05 -1.28869e-06  1.07063e-04
       C  6.20200e-05  1.52534e-04  1.93889e-05
       C  1.20902e-04  1.96948e-04  1.28738e-04
       C  5.82073e-05  1.37797e-04 -6.91184e-05
       C  2.23670e-04 -8.09389e-05 -1.16881e-04
       C  6.09882e-05 -1.66320e-05  1.85317e-04
       C -2.02631e-05  6.97255e-05 -1.29668e-04
       C -1.02012e-04 -2.30696e-04 -2.11842e-07
       C -1.72127e-04 -5.01689e-05  1.47735e-04
       C  3.26517e-04  1.88604e-06  1.24039e-04
       C -8.24393e-05 -1.59936e-06 -2.33114e-05
       C  2.00518e-05  6.30422e-05  8.43598e-05
       C  3.85678e-05  5.50214e-05 -9.54572e-05
       H  1.76850e-04  3.18506e-05  2.71180e-04
       H -2.35827e-04 -5.00427e-04  3.78844e-04
       H -2.82589e-04 -2.75773e-04  2.95999e-05
       H -1.23348e-03  3.25028e-04  1.26649e-04
       H  1.92816e-04  2.60724e-04  1.10186e-04
       H  8.45809e-04 -3.61077e-04  9.04657e-05
       H -2.96234e-04 -1.34407e-05 -1.63695e-04
       H -7.10193e-04 -5.99738e-05  4.00773e-04
       H -1.17708e-03  2.31571e-04 -2.18856e-04
       H  4.38053e-04 -5.75949e-05 -2.33237e-06
       H -1.07879e-03  2.40391e-04  1.76855e-04
       H -4.18275e-05 -7.55790e-04  7.47906e-05
       H  7.77631e-04 -4.11096e-04 -3.00284e-05
       H -1.30042e-04  1.85514e-04  8.20192e-05
38
# CELL(abcABC):  105.20000   105.20000   105.20000    90.00000    90.00000    90.00000  Step:          70  Bead:       0 velocities{atomic_unit}  cell{angstrom}
       N -1.67816e-04  1.27913e-04 -1.25692e-05
       N -2.29960e-04 -9.94046e-05  2.48640e-05
       N -1.59595e-04 -1.71503e-05  2.12764e-05
       N -4.07569e-05 -8.49517e-05  8.22450e-05
       C  9.37044e-06 -1.30610e-04 -1.37407e-04
       C  6.10514e-05 -9.51492e-05 -9.60871e-05
       C -5.54489e-05  1.16073e-04 -2.48401e-04
       C -1.73087e-04  1.65598e-04  4.46981e-05
       C  6.61008e-05  1.92984e-04 -2.05938e-04
       C -7.33695e-05  2.60344e-05  1.59653e-04
       C  1.87707e-04 -4.18685e-04 -1.28966e-04
       C  8.60698e-05 -3.56785e-05  1.94678e-05
       C  7.82998e-05  1.96861e-05 -1.09329e-04
       C -7.61249e-05  8.76415e-05  1.22896e-04
       C  3.08972e-04  1.04555e-04 -6.32788e-05
       C  7.44203e-05 -4.08400e-05 -6.11270e-05
       C  2.01225e-04  1.71029e-05  2.33759e-04
       C  2.11983e-05  5.97017e-05 -8.09943e-05
       C -1.72257e-04 -6.13439e-05 -2.14353e-06
       C -7.33986e-05 -2.95421e-05  1.52289e-04
       C  2.49193e-04  2.53168e-04  1.05379e-04
       C  8.35929e-05 -3.41117e-04 -3.48273e-05
       C -3.32371e-05 -5.66268e-06  6.76831e-05
       C -4.38662e-05  2.54882e-04 -7.41922e-05
       H  6.44228e-04  9.71279e-04  5.87468e-04
       H -3.34381e-04 -2.59100e-04  5.61853e-04
       H -7.78449e-05  8.37865e-04 -1.83217e-04
       H -6.21270e-04 -7.71229e-04 -3.30470e-04
       H  6.74172e-04 -2.14920e-04  1.72016e-04
       H -2.18633e-04 -5.07468e-04  8.07066e-04
       H  2.02700e-04 -5.85819e-04  4.80461e-04
       H  6.39050e-04  1.77823e-05  4.79651e-04
       H  2.26869e-04  9.64621e-04 -2.73892e-04
       H -6.89975e-04 -9.26514e-05 -1.20629e-04
       H -4.68118e-04 -5.48163e-04 -4.12806e-05
       H -1.99840e-04  4.90933e-04  2.59133e-04
       H -1.05536e-04 -8.22955e-04  3.46010e-04
       H -1.55727e-05 -1.11403e-04 -3.39474e-04
38
# CELL(abcABC):  105.20000   105.20000   105.20000    90.00000    90.00000    90.00000  Step:          80  Bead:       0 velocities{atomic_unit}  cell{angstrom}
       N  5.18444e-05  7.98074e-05 -5.66903e-05
       N -9.64275e-05 -2.26450e-04  4.66149e-06
       N  1.42945e-05 -1.28657e-04 -1.02427e-06
       N -8.00931e-05  4.57992e-06  2.10219e-05
       C  3.75649e-04 -3.02885e-07 -1.12330e-04
       C -4.28082e-04 -1.00131e-04 -3.64666e-05
       C -1.84838e-04  6.34806e-05 -1.20951e-04
       C -1.26401e-04  1.38473e-04  6.48054e-05
       C -9.59765e-06  7.74216e-05 -1.95417e-04
       C  1.23835e-04 -1.41693e-04  1.44389e-04
       C  2.58319e-04 -3.65365e-05 -1.35687e-04
       C -2.04079e-04  9.62630e-06 -2.00833e-05
       C  9.19838e-05 -1.58317e-04 -2.13708e-04
       C -1.30974e-04 -1.07110e-05  1.24372e-04
       C  1.96113e-04  9.06300e-05 -5.14613e-05
       C  9.78685e-05 -4.67251e-05  2.97958e-05
       C -1.13901e-04  2.57505e-05  2.38731e-04
       C -4.04423e-05  3.65270e-05 -1.47906e-05
       C  1.46649e-04  2.02110e-04 -9.37976e-06
       C -6.23229e-05  1.70959e-04  1.36829e-04
       C -4.45486e-06  2.26338e-04  5.33720e-05
       C  2.39313e-04 -2.03273e-04 -4.93036e-05
       C  2.93638e-05 -1.59487e-04  7.33238e-05
       C -6.90394e-05  1.72520e-04 -7.22174e-05
       H  2.01155e-04 -2.98785e-05  3.64800e-04
       H  1.26959e-04  3.33985e-04  2.92226e-04
       H -4.39228e-04 -3.93607e-04 -4.04340e-04
       H  1.19832e-04  5.66077e-04 -5.98807e-04
       H -2.57827e-04 -4.15182e-04  8.75360e-05
       H  5.56504e-05  3.74953e-04  1.24602e-03
       H -9.33269e-05 -9.19481e-05  8.83258e-04
       H -5.09036e-04 -4.92543e-04  5.45887e-04
       H -1.58647e-04 -4.18906e-04 -1.96581e-04
       H  1.80422e-05 -4.53663e-04 -1.34582e-04
       H  4.35796e-04  9.65268e-04 -7.88966e-05
       H -3.07950e-04 -7.93046e-04  3.66204e-04
       H  3.96543e-04  5.95716e-05  6.48370e-04
       H -2.58094e-04  3.00962e-04 -5.95775e-04
38
# CELL(abcABC):  105.20000   105.20000   105.20000    90.00000    90.00000    90.00000  Step:          90  Bead:       0 velocities{atomic_unit}  cell{angstrom}
       N  2.37621e-04  5.19698e-06 -1.05314e-04
       N  3.02261e-05  1.06347e-05  6.53675e-06
       N  1.18129e-04 -7.28188e-05  2.09925e-06
       N -5.04999e-05  7.49122e-05 -2.97929e-05
       C -6.80258e-05  1.79053e-04 -7.09661e-05
       C -8.34282e-05 -9.59341e-05 -8.63844e-06
       C  4.96140e-05 -2.04026e-05  1.65025e-05
       C -4.28738e-05 -7.46150e-05  1.04171e-04
       C  1.02778e-04 -2.39578e-04 -1.97057e-04
       C -9.86626e-05 -1.02014e-04  1.08423e-04
       C -1.59094e-05  3.26676e-04 -1.35595e-04
       C -2.05781e-04  4.25878e-05 -9.50688e-07
       C -4.22734e-05 -6.72533e-05 -2.23175e-04
       C -2.81586e-04 -3.95893e-05  1.59106e-04
       C -2.36774e-05  1.77265e-06 -4.49544e-05
       C  7.88525e-05 -1.23266e-04  1.27289e-04
       C -1.74508e-04 -7.39832e-05  1.91387e-04
       C -1.77218e-04  1.19432e-04  3.47240e-05
       C  2.41821e-04  1.41080e-04 -3.90643e-05
       C -1.68396e-05  1.20650e-04  1.00405e-04
       C -1.07340e-04  1.80772e-04 -9.46815e-11
       C  1.64719e-04 -1.08927e-04 -5.00118e-05
       C  9.10265e-05 -9.34073e-05  1.21795e-04
       C -5.34256e-06 -3.41919e-05 -8.63474e-05
       H -6.23526e-04 -7.15861e-04 -1.07742e-04
       H -1.47783e-04 -1.11673e-03 -3.56552e-04
       H  3.35183e-05  3.43901e-04 -5.47326e-04
       H  1.09037e-03 -4.47625e-04 -5.65077e-04
       H -1.38294e-04 -3.78719e-04 -1.60699e-04
       H -6.78965e-04  3.14192e-04  1.08815e-03
       H  2.27242e-04 -2.59366e-05  5.98589e-04
       H -9.61212e-06  1.92492e-04  2.71417e-04
       H  1.02737e-03 -4.07965e-04  1.18807e-04
       H -1.87559e-04  4.25690e-04  2.83069e-05
       H  1.36500e-03  9.07725e-05 -2.09366e-04
       H  7.15191e-04  4.90437e-04  2.50295e-04
       H -4.39242e-04  7.99320e-05  6.91216e-04
       H  4.28655e-04  4.43256e-04 -6.18049e-04
38
# CELL(abcABC):  105.20000   105.20000   105.20000    90.00000    90.00000    90.00000  Step:         100  Bead:       0 velocities{atomic_unit}  cell{angstrom}
       N  1.64220e-04 -1.64707e-04 -1.45904e-04
       N -2.36172e-05 -4.93599e-05 -1.58244e-05
       N  4.09787e-05  4.45909e-05  8.54011e-06
       N -5.19522e-05  6.40398e-05 -5.76895e-05
       C -3.47192e-04  3.88420e-05 -7.63753e-05
       C  2.91148e-04 -2.51690e-05  1.31510e-05
       C  3.31481e-04  2.15732e-08  1.20748e-04
       C -4.24835e-05 -1.26489e-04  1.54082e-04
       C  1.19626e-04 -5.27738e-05 -1.74656e-04
       C -2.51006e-04 -1.56493e-04  8.90067e-06
       C -2.50128e-04  2.91351e-04 -1.41852e-04
       C -1.76404e-04 -6.78778e-05  8.78613e-05
       C  7.83248e-06  1.89551e-04 -1.45994e-04
       C -1.70257e-04  3.04727e-05  1.75360e-04
       C -1.39938e-04 -7.46513e-05 -3.88530e-05
       C -4.48653e-05 -1.63992e-04  1.97582e-04
       C  1.57709e-04 -1.35873e-04  1.11729e-04
       C -1.38351e-04  1.38813e-04  5.26382e-05
       C  2.86901e-04 -6.47769e-05 -5.87707e-05
       C -1.26688e-04 -1.98997e-05  6.11037e-05
       C  8.29359e-05 -1.33725e-04 -5.85161e-05
       C  5.96021e-05  1.73114e-04 -3.48606e-05
       C -1.51976e-04  2.55060e-05  1.94084e-04
       C  1.96358e-04 -5.30816e-05 -1.04207e-04
       H -3.17682e-04 -4.71797e-06 -4.04511e-04
       H  5.71706e-04  9.66866e-04 -5.47690e-04
       H  3.23584e-04 -6.80728e-04 -6.06982e-04
       H  2.81237e-04  7.27632e-04  1.44930e-04
       H -2.93997e-04  8.27522e-04 -4.05895e-04
       H -4.72918e-06  5.92664e-04  2.57276e-04
       H -3.67565e-04  7.51577e-05 -1.59456e-04
       H -5.58061e-04  3.21084e-04  8.13705e-05
       H -3.23649e-05 -1.13235e-04  4.13915e-04
       H  3.33410e-04  5.95902e-04  2.38378e-04
       H  6.38867e-04  3.31555e-04 -2.36519e-04
       H  7.59846e-04 -6.38530e-04 -6.78085e-05
       H  9.57014e-05  2.35096e-04  5.72205e-04
       H  4.11363e-04  4.58777e-04 -4.37832e-04
38
# CELL(abcABC):  105.20000   105.20000   105.20000    90.00000    90.00000    90.00000  Step:         110  Bead:       0 velocities{atomic_unit}  cell{angstrom}
       N -5.58465e-05 -1.89292e-04 -1.44978e-04
       N  6.30752e-05  9.26690e-05 -3.98947e-05
       N  2.72209e-05  6.45666e-05  6.90535e-06
       N -1.34833e-04 -6.40066e-05 -6.27767e-05
       C  7.06113e-05 -2.24558e-04 -1.28624e-04
       C -6.80539e-05  2.99281e-05  5.24952e-05
       C  1.68818e-04  1.00571e-04  1.64373e-04
       C -6.76929e-05 -2.49007e-05  1.81868e-04
       C -1.52832e-04  9.33939e-05 -1.55093e-04
       C -1.95719e-04  9.60378e-05 -6.60399e-05
       C -2.18999e-04  1.24781e-04 -1.53803e-04
       C -2.67676e-05 -8.77278e-05  1.66265e-04
       C  1.53405e-04  3.42669e-04 -6.09992e-05
       C -3.84670e-05  4.16515e-05  1.76905e-04
       C -1.27153e-04 -1.08558e-04 -3.41891e-05
       C -1.27801e-04 -2.44139e-05  2.19540e-04
       C  3.52010e-04 -8.10698e-05  2.62176e-05
       C  1.25679e-05 -3.25987e-05  4.72426e-05
       C  1.45708e-04 -1.61790e-04 -3.86944e-05
       C -1.46940e-04 -3.98805e-05  2.69260e-05
       C  1.12754e-04 -2.43752e-04 -9.66573e-05
       C  5.76755e-05  1.04118e-04 -1.60713e-05
       C -1.15102e-04  3.83134e-05  2.74907e-04
       C  2.75340e-04  1.80461e-04 -1.22168e-04
       H  9.60194e-04 -1.41478e-04 -5.68512e-04
       H -8.30178e-04 -3.53497e-04 -3.66876e-04
       H  1.10146e-03  3.16688e-04 -3.97739e-04
       H -5.56598e-04 -8.35311e-04  5.49608e-04
       H  4.90563e-04  7.80106e-04 -5.97801e-04
       H -4.90712e-04 -3.41406e-04 -3.63490e-04
       H  3.16884e-04 -9.44189e-05 -8.29429e-04
       H -1.02574e-04  2.38734e-04 -1.01547e-04
       H -3.57325e-05  5.11373e-04  5.51350e-04
       H -2.98062e-05  1.25547e-04  3.83903e-04
       H -5.17376e-04 -7.09274e-04 -1.99311e-04
       H  5.21380e-04  5.74403e-04 -3.01734e-04
       H -4.26437e-04 -1.15261e-04  1.57303e-04
       H  2.38872e-04 -8.30700e-05 -1.04062e-04
38
# CELL(abcABC):  105.20000   105.20000   105.20000    90.00000    90.00000    90.00000  Step:         120  Bead:       0 velocities{atomic_unit}  cell{angstrom}
       N -7.37998e-05 -1.18229e-04 -1.18016e-04
       N -9.10828e-05  1.67171e-05 -3.68787e-05
       N  1.15517e-04 -2.20397e-05 -1.10745e-05
       N -1.41864e-04 -1.38608e-04 -3.58645e-05
       C  2.09975e-04 -2.86304e-04 -1.60059e-04
       C -2.93274e-04  1.93641e-05  5.81688e-05
       C -1.57624e-04  2.07130e-04  1.40228e-04
       C -5.56769e-05  1.03684e-04  1.70028e-04
       C -1.41863e-04  1.62930e-04 -1.52775e-04
       C -1.62879e-05  8.29943e-05 -1.10166e-04
       C  1.14698e-04 -9.57864e-06 -1.71052e-04
       C -7.00728e-05 -4.80397e-05  2.35738e-04
       C  3.07646e-04 -3.31053e-05 -5.60339e-05
       C  7.65145e-05 -5.19079e-06  1.61031e-04
       C  5.70452e-05 -1.88174e-04 -2.96986e-05
       C -1.71567e-04  6.77552e-05  1.85664e-04
       C  1.94712e-04  3.97739e-05 -2.99172e-05
       C  5.01742e-05 -1.03951e-04  2.54810e-05
       C  5.61928e-05  1.94269e-04  6.83671e-05
       C -4.95384e-05  8.47116e-05  9.70038e-06
       C -1.52484e-04 -2.88202e-04 -1.09691e-04
       C  2.54645e-04  1.66965e-04  7.21864e-06
       C  1.06146e-04 -1.35184e-04  3.05763e-04
       C  1.29173e-04  2.46085e-04 -1.20615e-04
       H  2.39704e-05  3.40886e-04 -2.33611e-04
       H -1.39398e-04  4.02410e-04 -1.17106e-05
       H  3.25879e-04 -3.46613e-04 -2.85136e-04
       H -1.45284e-03  3.32305e-04  8.29087e-04
       H -1.87848e-04  1.69150e-04 -5.62810e-04
       H  4.81849e-04 -4.62104e-04 -8.79658e-04
       H  1.66772e-04  4.71735e-04 -1.08472e-03
       H  3.09318e-04 -1.99546e-04 -1.20769e-04
       H  9.04976e-06  1.77587e-04  1.60756e-04
       H -4.97469e-04 -5.07669e-04  3.03666e-04
       H -1.22950e-03 -1.43577e-04 -6.30770e-05
       H -5.09415e-04 -1.59123e-04 -4.29040e-04
       H  2.59376e-04  4.07374e-04 -4.77292e-05
       H -2.47121e-04 -1.51621e-04  1.36806e-04
38
# CELL(abcABC):  105.20000   105.20000   105.20000    90.00000    90.00000    90.00000  Step:         130  Bead:       0 velocities{atomic_unit}  cell{angstrom}
       N -1.09264e-04  1.32811e-04 -4.57694e-05
       N -2.39885e-04  3.06645e-05 -1.39402e-05
       N  2.08995e-04 -2.08958e-04 -4.14037e-05
       N -4.66846e-05 -8.47656e-05  1.70144e-05
       C -2.12540e-04 -2.95290e-05 -1.46135e-04
       C -3.10764e-05 -4.94188e-05  3.36328e-05
       C -1.85342e-04  1.19185e-04  3.55906e-05
       C -1.68649e-05  7.61274e-05  1.17366e-04
       C  2.23846e-04 -1.52078e-04 -2.00361e-04
       C -7.95554e-05  1.48526e-04 -8.19807e-05
       C  2.14361e-04  3.94231e-05 -1.63650e-04
       C -2.20933e-06  1.34994e-04  2.34376e-04
       C  1.77044e-04 -2.02863e-04 -6.77684e-05
       C  1.54476e-04  4.70258e-05  1.29528e-04
       C  1.02165e-04 -2.83912e-04 -2.51087e-05
       C  2.88050e-05 -5.21986e-06  1.03196e-04
       C -8.20703e-05  1.42609e-04 -3.42435e-05
       C -6.01025e-05  8.64479e-05 -8.03853e-06
       C  8.73076e-05  3.14702e-04  1.39686e-04
       C -2.08697e-05  8.58241e-05  1.55791e-05
       C -3.14635e-04 -1.90543e-04 -7.86239e-05
       C  1.88134e-04  6.49001e-05  1.51312e-05
       C  2.29727e-04 -5.51995e-05  2.83871e-04
       C -5.17070e-05  8.73568e-05 -8.72920e-05
       H -9.78313e-04 -5.12764e-04  1.58450e-04
       H  5.63839e-04  1.08577e-04  4.08381e-04
       H -7.43700e-04  4.15667e-04 -2.65928e-05
       H -3.07605e-04 -4.20545e-04  5.12617e-04
       H  4.08272e-05 -9.05203e-04 -4.28033e-04
       H  2.89577e-05 -6.21609e-04 -6.75794e-04
       H  5.63632e-04  1.52000e-04 -8.86842e-04
       H  5.92329e-05 -4.83807e-04  1.12789e-04
       H  2.38528e-04 -7.77110e-05 -3.41242e-04
       H -1.77867e-05 -5.68251e-04  7.64155e-07
       H -6.46308e-04 -6.24765e-04  9.44658e-05
       H -1.94787e-04  7.08770e-04 -3.56360e-04
       H -1.52766e-04  7.21322e-05 -1.80059e-04
       H -1.47999e-05  5.89466e-05  2.17108e-04
38
# CELL(abcABC):  105.20000   105.20000   105.20000    90.00000    90.00000    90.00000  Step:         140  Bead:       0 velocities{atomic_unit}  cell{angstrom}
       N -2.45117e-04  1.26322e-04  2.62051e-05
       N -7.85775e-05  5.60306e-05  2.25435e-06
       N  2.08009e-04 -3.74894e-04 -6.25103e-05
       N  2.47122e-05  5.65374e-05  8.26181e-05
       C -2.39094e-04  1.46191e-04 -1.50881e-04
       C  8.08716e-05 -1.73288e-05  2.88969e-05
       C  1.35618e-05 -5.90287e-05 -1.09274e-04
       C -9.40681e-06 -2.83282e-06  5.86105e-05
       C  3.22054e-04 -1.23525e-04 -1.92336e-04
       C -1.19616e-04 -1.23671e-05 -6.54566e-06
       C  1.71543e-04  1.15848e-05 -1.69801e-04
       C -4.12387e-05  1.98055e-04  1.71528e-04
       C  1.49307e-05  6.37101e-05 -5.64758e-05
       C  6.47101e-05  9.90902e-05  1.03423e-04
       C -1.14957e-05 -3.27688e-04 -1.76603e-05
       C  3.16236e-04 -1.54530e-04 -7.15563e-06
       C -1.44601e-04  1.34240e-04 -4.53751e-06
       C -1.29247e-04  2.54254e-04 -3.72098e-05
       C  1.56914e-04 -3.70149e-05  1.05025e-04
       C  1.60355e-05 -3.59985e-05  2.34229e-05
       C -1.10883e-04 -2.07780e-04  8.85412e-06
       C -7.41384e-05  4.94014e-05 -6.21458e-06
       C -1.13021e-04  1.78272e-04  1.84022e-04
       C -3.60059e-05 -4.42254e-05 -2.92051e-05
       H -6.10394e-04 -7.86387e-06  4.72307e-04
       H -3.14567e-04 -1.01773e-03  6.58707e-04
       H -9.06059e-04 -2.33853e-04 -7.19114e-05
       H  7.70266e-04  6.65481e-04 -2.32940e-04
       H -3.20937e-04 -1.56768e-04  5.87372e-05
       H  2.58124e-04  5.27051e-04  2.18575e-05
       H -4.60211e-04 -1.82702e-04 -2.13786e-04
       H  6.10160e-04  2.41261e-04  3.63573e-04
       H  3.34939e-04  2.34731e-04 -5.16144e-04
       H -1.72952e-04  4.24671e-04 -2.55088e-04
       H -1.41485e-04  1.14435e-04  2.19159e-04
       H  2.11452e-04 -4.92231e-04  4.41708e-06
       H  3.21668e-04  2.98071e-05 -7.82203e-05
       H  1.57649e-04  4.03356e-04  1.27890e-04
38
# CELL(abcABC):  105.20000   105.20000   105.20000    90.00000    90.00000    90.00000  Step:         150  Bead:       0 velocities{atomic_unit}  cell{angstrom}