38
# CELL(abcABC):  105.20000   105.20000   105.20000    90.00000    90.00000    90.00000  Step:           0  Bead:       0 positions{angstrom}  cell{angstrom}
       N  1.43959e+00 -1.33182e+00 -2.23423e-02
       N -1.44039e+00 -1.33010e+00 -2.16855e-02
       N  1.40639e+00  1.30143e+00  8.67109e-02
       N -1.40566e+00  1.30323e+00  8.80871e-02
       C  7.02470e-01 -2.48192e+00 -6.97422e-02
       C -7.05232e-01 -2.48133e+00 -7.00067e-02
       C  2.78040e+00 -1.61629e+00 -3.46358e-02
       C -2.78187e+00 -1.61204e+00 -3.34510e-02
       C  1.62359e+00 -3.57624e+00 -1.15015e-01
       C -1.62764e+00 -3.57415e+00 -1.16152e-01
       C  2.89539e+00 -3.04640e+00 -9.33138e-02
       C -2.89853e+00 -3.04215e+00 -9.37147e-02
       C  3.82844e+00 -6.75936e-01  3.78818e-03
       C -3.82897e+00 -6.70824e-01  5.56549e-03
       C  7.10385e-01  2.46279e+00  1.35026e-01
       C -7.08407e-01  2.46363e+00  1.35303e-01
       C  2.73317e+00  1.63289e+00  1.00259e-01
       C -2.73200e+00  1.63650e+00  1.01133e-01
       C  3.80711e+00  7.20061e-01  6.14528e-02
       C -3.80706e+00  7.25202e-01  6.31850e-02
       C  1.61003e+00  3.59806e+00  1.81340e-01
       C -1.60608e+00  3.59985e+00  1.81239e-01
       C  2.87703e+00  3.07649e+00  1.59527e-01
       C -2.87389e+00  3.08037e+00  1.59623e-01
       H  1.12519e+00 -3.16134e-01  1.95387e-02
       H -1.12430e+00 -3.14988e-01  2.10836e-02
       H  1.35026e+00 -4.62426e+00 -1.58027e-01
       H -1.35578e+00 -4.62249e+00 -1.60278e-01
       H  3.83281e+00 -3.59079e+00 -1.15905e-01
       H -3.83665e+00 -3.58537e+00 -1.16753e-01
       H  4.81978e+00 -1.12844e+00 -1.56052e-02
       H -4.82059e+00 -1.12271e+00 -1.32310e-02
       H  4.79176e+00  1.18885e+00  8.04961e-02
       H -4.79127e+00  1.19494e+00  8.24353e-02
       H  1.32474e+00  4.64354e+00  2.24566e-01
       H -1.31928e+00  4.64496e+00  2.23434e-01
       H  3.81664e+00  3.61956e+00  1.81898e-01
       H -3.81268e+00  3.62491e+00  1.81569e-01
38
# CELL(abcABC):  105.20000   105.20000   105.20000    90.00000    90.00000    90.00000  Step:          10  Bead:       0 positions{angstrom}  cell{angstrom}
       N  1.39598e+00 -1.32770e+00 -4.81446e-02
       N -1.43961e+00 -1.32621e+00 -3.00353e-02
       N  1.40686e+00  1.30718e+00  9.17786e-02
       N -1.36666e+00  1.32402e+00  7.32331e-02
       C  6.93844e-01 -2.46379e+00 -6.79312e-02
       C -7.25653e-01 -2.47673e+00 -6.81490e-02
       C  2.76569e+00 -1.62340e+00 -3.75975e-02
       C -2.77468e+00 -1.62070e+00 -2.27276e-02
       C  1.60905e+00 -3.59638e+00 -1.19685e-01
       C -1.61845e+00 -3.56197e+00 -1.11551e-01
       C  2.89280e+00 -3.07014e+00 -1.30097e-01
       C -2.87218e+00 -3.02832e+00 -8.74135e-02
       C  3.82710e+00 -7.02180e-01 -1.85188e-02
       C -3.82200e+00 -7.00141e-01  1.79716e-02
       C  7.52823e-01  2.47510e+00  1.61351e-01
       C -6.99797e-01  2.47730e+00  1.36706e-01
       C  2.70976e+00  1.60270e+00  1.00263e-01
       C -2.72595e+00  1.62828e+00  1.23674e-01
       C  3.82445e+00  7.47718e-01  7.81479e-02
       C -3.78033e+00  7.19715e-01  7.15857e-02
       C  1.58474e+00  3.62236e+00  1.91180e-01
       C -1.61579e+00  3.61566e+00  1.54738e-01
       C  2.88784e+00  3.07049e+00  1.66128e-01
       C -2.89529e+00  3.06204e+00  1.58471e-01
       H  1.02953e+00 -3.35522e-01  7.49399e-02
       H -1.13118e+00 -2.52719e-01  5.50142e-02
       H  1.29667e+00 -4.63714e+00 -1.96613e-01
       H -1.46003e+00 -4.63096e+00 -2.20537e-01
       H  3.81600e+00 -3.64177e+00 -1.54854e-01
       H -3.76530e+00 -3.63968e+00  1.65204e-02
       H  4.85027e+00 -1.07672e+00  9.94217e-02
       H -4.84928e+00 -1.10901e+00  2.30046e-02
       H  4.82791e+00  1.18594e+00  8.13096e-02
       H -4.76401e+00  1.18925e+00  6.90663e-02
       H  1.26329e+00  4.66123e+00  2.31610e-01
       H -1.34201e+00  4.66725e+00  2.09109e-01
       H  3.84972e+00  3.58401e+00  2.21529e-01
       H -3.80831e+00  3.65519e+00  1.17573e-01
38
# CELL(abcABC):  105.20000   105.20000   105.20000    90.00000    90.00000    90.00000  Step:          20  Bead:       0 positions{angstrom}  cell{angstrom}
       N  1.37886e+00 -1.32200e+00 -6.97739e-02
       N -1.43823e+00 -1.30649e+00 -3.50542e-02
       N  1.40060e+00  1.29987e+00  9.87003e-02
       N -1.34983e+00  1.33238e+00  6.44684e-02
       C  6.78292e-01 -2.47885e+00 -6.98274e-02
       C -7.18847e-01 -2.46792e+00 -6.90969e-02
       C  2.74860e+00 -1.63717e+00 -4.42319e-02
       C -2.77287e+00 -1.62538e+00 -1.09514e-02
       C  1.58743e+00 -3.59858e+00 -1.26613e-01
       C -1.61435e+00 -3.56394e+00 -1.09619e-01
       C  2.87438e+00 -3.08243e+00 -1.62201e-01
       C -2.86485e+00 -3.02827e+00 -7.50721e-02
       C  3.83141e+00 -6.83598e-01 -2.94886e-02
       C -3.82128e+00 -7.03664e-01  3.24562e-02
       C  7.40808e-01  2.49179e+00  1.83512e-01
       C -6.68242e-01  2.50441e+00  1.36434e-01
       C  2.71441e+00  1.60868e+00  1.01030e-01
       C -2.70140e+00  1.62123e+00  1.39004e-01
       C  3.83192e+00  7.25399e-01  8.94103e-02
       C -3.76306e+00  6.93905e-01  7.85806e-02
       C  1.60262e+00  3.63471e+00  2.01474e-01
       C -1.63526e+00  3.61761e+00  1.32264e-01
       C  2.87476e+00  3.07014e+00  1.74264e-01
       C -2.89373e+00  3.06279e+00  1.55140e-01
       H  1.04445e+00 -3.41263e-01  8.86317e-02
       H -1.15823e+00 -3.23990e-01  4.67750e-02
       H  1.26620e+00 -4.62770e+00 -2.23660e-01
       H -1.43825e+00 -4.62182e+00 -2.44778e-01
       H  3.80424e+00 -3.64489e+00 -1.96075e-01
       H -3.74613e+00 -3.62984e+00  8.66745e-02
       H  4.81199e+00 -1.13094e+00  1.42689e-01
       H -4.81196e+00 -1.12393e+00  4.71571e-02
       H  4.82145e+00  1.21823e+00  9.63612e-02
       H -4.74757e+00  1.18431e+00  7.42300e-02
       H  1.24157e+00  4.65597e+00  2.43424e-01
       H -1.37585e+00  4.67506e+00  1.81883e-01
       H  3.84590e+00  3.54892e+00  2.43093e-01
       H -3.82463e+00  3.61305e+00  8.00891e-02
38
# CELL(abcABC):  105.20000   105.20000   105.20000    90.00000    90.00000    90.00000  Step:          30  Bead:       0 positions{angstrom}  cell{angstrom}
       N  1.39473e+00 -1.32996e+00 -8.54163e-02
       N -1.44644e+00 -1.30322e+00 -3.77550e-02
       N  1.38677e+00  1.29701e+00  1.09391e-01
       N -1.34423e+00  1.33850e+00  6.59638e-02
       C  6.62300e-01 -2.50462e+00 -7.62304e-02
       C -6.98315e-01 -2.46046e+00 -7.47650e-02
       C  2.73998e+00 -1.63259e+00 -5.79816e-02
       C -2.77173e+00 -1.61744e+00  1.86816e-03
       C  1.56656e+00 -3.58877e+00 -1.38357e-01
       C -1.61168e+00 -3.57021e+00 -1.10207e-01
       C  2.83994e+00 -3.08178e+00 -1.86461e-01
       C -2.87548e+00 -3.04573e+00 -5.47844e-02
       C  3.82382e+00 -6.68039e-01 -2.68823e-02
       C -3.81812e+00 -6.94551e-01  4.90199e-02
       C  7.17480e-01  2.50061e+00  1.97737e-01
       C -6.66157e-01  2.53116e+00  1.31202e-01
       C  2.74098e+00  1.63295e+00  1.02967e-01
       C -2.66857e+00  1.61439e+00  1.42858e-01
       C  3.82138e+00  6.94289e-01  9.51793e-02
       C -3.75102e+00  6.72195e-01  8.53116e-02
       C  1.63999e+00  3.63054e+00  2.13048e-01
       C -1.64362e+00  3.61545e+00  1.16818e-01
       C  2.85802e+00  3.07131e+00  1.84353e-01
       C -2.87888e+00  3.06472e+00  1.47863e-01
       H  1.11001e+00 -2.86492e-01  5.77968e-02
       H -1.08549e+00 -2.57005e-01  1.72059e-02
       H  1.26028e+00 -4.62934e+00 -2.32824e-01
       H -1.30275e+00 -4.61059e+00 -2.20908e-01
       H  3.78353e+00 -3.61145e+00 -2.39756e-01
       H -3.81549e+00 -3.57994e+00  7.42335e-02
       H  4.75853e+00 -1.22180e+00  9.15841e-02
       H -4.82348e+00 -1.17658e+00  5.56840e-02
       H  4.76714e+00  1.21450e+00  1.29565e-01
       H -4.71465e+00  1.16211e+00  1.03776e-01
       H  1.30461e+00  4.66243e+00  2.63689e-01
       H -1.42402e+00  4.67427e+00  1.36588e-01
       H  3.82746e+00  3.56158e+00  2.38757e-01
       H -3.85863e+00  3.53887e+00  8.49407e-02
38
# CELL(abcABC):  105.20000   105.20000   105.20000    90.00000    90.00000    90.00000  Step:          40  Bead:       0 positions{angstrom}  cell{angstrom}
       N  1.42207e+00 -1.34254e+00 -9.30449e-02
       N -1.44159e+00 -1.30018e+00 -3.72524e-02
       N  1.38249e+00  1.31335e+00  1.23088e-01
       N -1.33417e+00  1.34474e+00  7.70735e-02
       C  6.69916e-01 -2.50099e+00 -8.61271e-02
       C -7.12365e-01 -2.45774e+00 -8.51850e-02
       C  2.73841e+00 -1.61608e+00 -8.09619e-02
       C -2.76736e+00 -1.61190e+00  1.36825e-02
       C  1.55033e+00 -3.59040e+00 -1.56207e-01
       C -1.60462e+00 -3.57413e+00 -1.10536e-01
       C  2.81116e+00 -3.06278e+00 -2.02592e-01
       C -2.89462e+00 -3.06715e+00 -2.91178e-02
       C  3.79840e+00 -6.97811e-01 -1.77212e-02
       C -3.82046e+00 -7.02234e-01  6.63665e-02
       C  7.19397e-01  2.50159e+00  2.03497e-01
       C -7.03302e-01  2.54348e+00  1.19418e-01
       C  2.75046e+00  1.64228e+00  1.06916e-01
       C -2.65400e+00  1.60388e+00  1.35681e-01
       C  3.79352e+00  6.94134e-01  9.98126e-02
       C -3.73285e+00  6.81453e-01  9.41919e-02
       C  1.64777e+00  3.61904e+00  2.26562e-01
       C -1.63373e+00  3.62451e+00  1.07978e-01
       C  2.87993e+00  3.06831e+00  1.95627e-01
       C -2.87253e+00  3.04673e+00  1.37226e-01
       H  1.16101e+00 -3.14578e-01 -1.04547e-02
       H -1.10428e+00 -2.92036e-01 -2.85504e-02
       H  1.27958e+00 -4.63097e+00 -2.23698e-01
       H -1.20456e+00 -4.58076e+00 -1.59144e-01
       H  3.75089e+00 -3.60214e+00 -2.79630e-01
       H -3.87239e+00 -3.53964e+00 -2.40836e-03
       H  4.75882e+00 -1.21683e+00 -1.64828e-02
       H -4.78410e+00 -1.15655e+00  5.67635e-02
       H  4.80550e+00  1.16387e+00  1.64933e-01
       H -4.72497e+00  1.16973e+00  1.46464e-01
       H  1.43751e+00  4.68028e+00  2.91568e-01
       H -1.43903e+00  4.69693e+00  8.56435e-02
       H  3.80838e+00  3.62119e+00  2.12590e-01
       H -3.85712e+00  3.49003e+00  1.25267e-01
38
# CELL(abcABC):  105.20000   105.20000   105.20000    90.00000    90.00000    90.00000  Step:          50  Bead:       0 positions{angstrom}  cell{angstrom}
       N  1.43536e+00 -1.34901e+00 -9.47029e-02
       N -1.43294e+00 -1.30788e+00 -3.47663e-02
       N  1.39899e+00  1.33878e+00  1.35943e-01
       N -1.32482e+00  1.34181e+00  9.35560e-02
       C  6.85553e-01 -2.47030e+00 -9.86324e-02
       C -7.44414e-01 -2.45526e+00 -9.85993e-02
       C  2.74060e+00 -1.62683e+00 -1.13060e-01
       C -2.76710e+00 -1.63020e+00  2.23702e-02
       C  1.54161e+00 -3.59761e+00 -1.78272e-01
       C -1.60223e+00 -3.57164e+00 -1.07344e-01
       C  2.80783e+00 -3.03551e+00 -2.13333e-01
       C -2.90417e+00 -3.07008e+00 -3.70251e-03
       C  3.77596e+00 -7.26947e-01 -7.17911e-03
       C -3.81135e+00 -7.04921e-01  8.30528e-02
       C  7.16336e-01  2.50868e+00  2.01951e-01
       C -7.14931e-01  2.53927e+00  1.04481e-01
       C  2.72783e+00  1.63652e+00  1.15823e-01
       C -2.65754e+00  1.59516e+00  1.21616e-01
       C  3.77756e+00  6.97299e-01  1.03193e-01
       C -3.72757e+00  7.03686e-01  1.05999e-01
       C  1.64257e+00  3.60824e+00  2.41305e-01
       C -1.63366e+00  3.64674e+00  1.04170e-01
       C  2.92473e+00  3.06897e+00  2.06589e-01
       C -2.86962e+00  3.02105e+00  1.25430e-01
       H  1.09856e+00 -3.50542e-01 -6.10803e-02
       H -1.12575e+00 -2.98104e-01 -5.63591e-02
       H  1.28713e+00 -4.65787e+00 -2.10435e-01
       H -1.21072e+00 -4.58510e+00 -8.83785e-02
       H  3.71586e+00 -3.61516e+00 -3.04031e-01
       H -3.87225e+00 -3.56138e+00 -9.25459e-02
       H  4.78359e+00 -1.13388e+00 -1.24446e-01
       H -4.85191e+00 -1.13663e+00  6.82101e-02
       H  4.78006e+00  1.05750e+00  1.79451e-01
       H -4.68372e+00  1.18485e+00  1.83698e-01
       H  1.51222e+00  4.68799e+00  3.20385e-01
       H -1.40775e+00  4.70102e+00  4.36322e-02
       H  3.83693e+00  3.67027e+00  1.83785e-01
       H -3.85033e+00  3.50359e+00  1.71716e-01
38
# CELL(abcABC):  105.20000   105.20000   105.20000    90.00000    90.00000    90.00000  Step:          60  Bead:       0 positions{angstrom}  cell{angstrom}
       N  1.42125e+00 -1.33547e+00 -9.32915e-02
       N -1.44463e+00 -1.31820e+00 -3.10118e-02
       N  1.41118e+00  1.35809e+00  1.45068e-01
       N -1.32209e+00  1.32834e+00  1.10184e-01
       C  6.68122e-01 -2.45173e+00 -1.13070e-01
       C -7.31720e-01 -2.45594e+00 -1.13304e-01
       C  2.74832e+00 -1.65258e+00 -1.50154e-01
       C -2.77772e+00 -1.65360e+00  2.81076e-02
       C  1.54837e+00 -3.59207e+00 -2.02389e-01
       C -1.61700e+00 -3.56981e+00 -9.75295e-02
       C  2.81949e+00 -3.04164e+00 -2.23745e-01
       C -2.89655e+00 -3.06456e+00  1.38557e-02
       C  3.77346e+00 -7.19513e-01 -2.70519e-04
       C -3.80963e+00 -6.93978e-01  9.80525e-02
       C  7.10883e-01  2.52308e+00  1.95520e-01
       C -6.92778e-01  2.52942e+00  9.02823e-02
       C  2.71504e+00  1.63102e+00  1.32271e-01
       C -2.66234e+00  1.59721e+00  1.06349e-01
       C  3.75694e+00  6.72341e-01  1.03218e-01
       C -3.73367e+00  7.04596e-01  1.20319e-01
       C  1.66352e+00  3.60639e+00  2.55852e-01
       C -1.64699e+00  3.65376e+00  1.02236e-01
       C  2.94868e+00  3.07789e+00  2.16479e-01
       C -2.86788e+00  3.01540e+00  1.14280e-01
       H  1.05167e+00 -3.56209e-01 -5.88337e-02
       H -1.10340e+00 -2.57128e-01 -4.17386e-02
       H  1.28111e+00 -4.63744e+00 -1.99893e-01
       H -1.30340e+00 -4.60815e+00 -4.85131e-02
       H  3.73605e+00 -3.61535e+00 -3.05592e-01
       H -3.81790e+00 -3.61714e+00 -1.28141e-01
       H  4.77742e+00 -1.09578e+00 -1.80561e-01
       H -4.79555e+00 -1.07029e+00  1.01556e-01
       H  4.80384e+00  1.07962e+00  1.75766e-01
       H -4.70902e+00  1.23682e+00  2.03515e-01
       H  1.45381e+00  4.66544e+00  3.41815e-01
       H -1.37088e+00  4.71220e+00  2.97121e-02
       H  3.87606e+00  3.63416e+00  1.68823e-01
       H -3.81878e+00  3.51600e+00  1.96667e-01
38
# CELL(abcABC):  105.20000   105.20000   105.20000    90.00000    90.00000    90.00000  Step:          70  Bead:       0 positions{angstrom}  cell{angstrom}
       N  1.39746e+00 -1.31540e+00 -9.27249e-02
       N -1.46814e+00 -1.31800e+00 -2.74550e-02
       N  1.39845e+00  1.36402e+00  1.49589e-01
       N -1.32401e+00  1.31499e+00  1.22262e-01
       C  6.45970e-01 -2.46041e+00 -1.28337e-01
       C -7.01818e-01 -2.46398e+00 -1.26245e-01
       C  2.75093e+00 -1.65170e+00 -1.82629e-01
       C -2.79607e+00 -1.64870e+00  3.28083e-02
       C  1.56226e+00 -3.56635e+00 -2.25792e-01
       C -1.63321e+00 -3.57134e+00 -8.15564e-02
       C  2.83769e+00 -3.08808e+00 -2.36934e-01
       C -2.88416e+00 -3.06819e+00  2.04442e-02
       C  3.78168e+00 -7.07582e-01 -4.94812e-03
       C -3.80158e+00 -6.74980e-01  1.11561e-01
       C  7.33289e-01  2.53633e+00  1.88085e-01
       C -6.76772e-01  2.52280e+00  8.01803e-02
       C  2.73461e+00  1.63155e+00  1.55530e-01
       C -2.66207e+00  1.60541e+00  9.45415e-02
       C  3.74486e+00  6.56068e-01  1.03244e-01
       C -3.75128e+00  6.99166e-01  1.37160e-01
       C  1.69916e+00  3.61955e+00  2.68514e-01
       C -1.64719e+00  3.63483e+00  9.90343e-02
       C  2.94370e+00  3.08165e+00  2.24770e-01
       C -2.86654e+00  3.03330e+00  1.04987e-01
       H  1.10778e+00 -2.96026e-01 -8.60220e-03
       H -1.15746e+00 -3.46066e-01  1.36226e-02
       H  1.25751e+00 -4.61503e+00 -2.07436e-01
       H -1.41299e+00 -4.63310e+00 -6.01168e-02
       H  3.78732e+00 -3.60548e+00 -2.88337e-01
       H -3.78128e+00 -3.66796e+00 -7.78769e-02
       H  4.77269e+00 -1.13749e+00 -1.62748e-01
       H -4.85297e+00 -1.09516e+00  1.52209e-01
       H  4.68930e+00  1.13296e+00  1.44467e-01
       H -4.68661e+00  1.20869e+00  1.92902e-01
       H  1.35182e+00  4.65315e+00  3.49838e-01
       H -1.39081e+00  4.67880e+00  4.99832e-02
       H  3.92405e+00  3.56358e+00  1.85116e-01
       H -3.84120e+00  3.52367e+00  1.83376e-01
38
# CELL(abcABC):  105.20000   105.20000   105.20000    90.00000    90.00000    90.00000  Step:          80  Bead:       0 positions{angstrom}  cell{angstrom}
       N  1.39031e+00 -1.30501e+00 -9.65187e-02
       N -1.48811e+00 -1.34150e+00 -2.60941e-02
       N  1.38906e+00  1.35502e+00  1.50424e-01
       N -1.33120e+00  1.31067e+00  1.27897e-01
       C  6.73900e-01 -2.46969e+00 -1.42268e-01
       C -7.27809e-01 -2.47480e+00 -1.33400e-01
       C  2.73570e+00 -1.63983e+00 -2.03053e-01
       C -2.81299e+00 -1.62909e+00  3.86107e-02
       C  1.56302e+00 -3.55081e+00 -2.47601e-01
       C -1.62778e+00 -3.57703e+00 -6.45529e-02
       C  2.86378e+00 -3.11514e+00 -2.51512e-01
       C -2.89087e+00 -3.06983e+00  1.97908e-02
       C  3.79190e+00 -7.16869e-01 -2.33742e-02
       C -3.81879e+00 -6.73698e-01  1.25253e-01
       C  7.63813e-01  2.54721e+00  1.81855e-01
       C -6.68727e-01  2.51877e+00  7.82308e-02
       C  2.74065e+00  1.63428e+00  1.81836e-01
       C -2.66144e+00  1.60979e+00  8.92964e-02
       C  3.73840e+00  6.63736e-01  1.02754e-01
       C -3.75546e+00  7.06185e-01  1.53087e-01
       C  1.71201e+00  3.64888e+00  2.77461e-01
       C -1.62821e+00  3.60105e+00  9.43362e-02
       C  2.94416e+00  3.07242e+00  2.32179e-01
       C -2.87479e+00  3.06000e+00  9.72297e-02
       H  1.16169e+00 -2.30145e-01  4.89156e-02
       H -1.15202e+00 -2.93334e-01  6.68031e-02
       H  1.23356e+00 -4.57374e+00 -2.39896e-01
       H -1.44315e+00 -4.64633e+00 -1.14455e-01
       H  3.81454e+00 -3.64412e+00 -2.72419e-01
       H -3.79310e+00 -3.67568e+00  4.02456e-02
       H  4.77899e+00 -1.17781e+00 -8.24485e-02
       H -4.77430e+00 -1.09715e+00  2.05479e-01
       H  4.74017e+00  1.18925e+00  1.17821e-01
       H -4.76373e+00  1.18960e+00  1.78685e-01
       H  1.35404e+00  4.66041e+00  3.41878e-01
       H -1.42338e+00  4.68033e+00  8.59806e-02
       H  3.92636e+00  3.51377e+00  2.40882e-01
       H -3.84540e+00  3.52408e+00  1.29574e-01
38
# CELL(abcABC):  105.20000   105.20000   105.20000    90.00000    90.00000    90.00000  Step:          90  Bead:       0 positions{angstrom}  cell{angstrom}
       N  1.40768e+00 -1.29880e+00 -1.05269e-01
       N -1.48967e+00 -1.35268e+00 -2.54239e-02
       N  1.39841e+00  1.34244e+00  1.50336e-01
       N -1.33870e+00  1.31532e+00  1.27250e-01
       C  6.95148e-01 -2.45818e+00 -1.52175e-01
       C -7.61852e-01 -2.48592e+00 -1.35560e-01
       C  2.72489e+00 -1.63835e+00 -2.08670e-01
       C -2.82196e+00 -1.62561e+00  4.76730e-02
       C  1.56757e+00 -3.56039e+00 -2.69066e-01
       C -1.62374e+00 -3.59123e+00 -5.04279e-02
       C  2.87947e+00 -3.09668e+00 -2.66348e-01
       C -2.91550e+00 -3.06586e+00  1.81024e-02
       C  3.79481e+00 -7.31733e-01 -4.81582e-02
       C -3.83708e+00 -6.75397e-01  1.40148e-01
       C  7.72692e-01  2.55292e+00  1.76614e-01
       C -6.57459e-01  2.50992e+00  8.69273e-02
       C  2.72005e+00  1.63258e+00  2.05827e-01
       C -2.67406e+00  1.61779e+00  9.06675e-02
       C  3.76650e+00  6.87320e-01  1.00271e-01
       C -3.76247e+00  7.25983e-01  1.66233e-01
       C  1.70313e+00  3.67115e+00  2.80351e-01
       C -1.60415e+00  3.58534e+00  8.88361e-02
       C  2.95194e+00  3.05609e+00  2.42370e-01
       C -2.87905e+00  3.06655e+00  8.86609e-02
       H  1.13655e+00 -2.89622e-01  6.16281e-02
       H -1.16153e+00 -3.55962e-01  6.16896e-02
       H  1.20279e+00 -4.59239e+00 -2.93357e-01
       H -1.37009e+00 -4.63654e+00 -1.82046e-01
       H  3.78559e+00 -3.69526e+00 -2.75647e-01
       H -3.82772e+00 -3.63474e+00  1.73176e-01
       H  4.78828e+00 -1.18039e+00  4.19595e-03
       H -4.86719e+00 -1.14353e+00  2.57635e-01
       H  4.73411e+00  1.10610e+00  1.11152e-01
       H -4.73102e+00  1.16486e+00  1.71091e-01
       H  1.45861e+00  4.74365e+00  3.26861e-01
       H -1.40707e+00  4.63877e+00  1.21044e-01
       H  3.93705e+00  3.53297e+00  3.17585e-01
       H -3.85201e+00  3.57438e+00  6.07841e-02
38
# CELL(abcABC):  105.20000   105.20000   105.20000    90.00000    90.00000    90.00000  Step:         100  Bead:       0 positions{angstrom}  cell{angstrom}
       N  1.43260e+00 -1.30842e+00 -1.19402e-01
       N -1.48962e+00 -1.35399e+00 -2.58378e-02
       N  1.40784e+00  1.34131e+00  1.50966e-01
       N -1.34346e+00  1.32414e+00  1.22224e-01
       C  6.65950e-01 -2.44324e+00 -1.59612e-01
       C -7.45036e-01 -2.49294e+00 -1.35491e-01
       C  2.74855e+00 -1.64031e+00 -2.00672e-01
       C -2.82577e+00 -1.63886e+00  6.18308e-02
       C  1.58218e+00 -3.58102e+00 -2.89705e-01
       C -1.64544e+00 -3.60635e+00 -4.36398e-02
       C  2.86299e+00 -3.05964e+00 -2.81432e-01
       C -2.93687e+00 -3.06689e+00  2.24567e-02
       C  3.79079e+00 -7.25849e-01 -6.89554e-02
       C -3.86940e+00 -6.78369e-01  1.59289e-01
       C  7.62684e-01  2.54824e+00  1.72028e-01
       C -6.55545e-01  2.49284e+00  1.05073e-01
       C  2.71765e+00  1.61976e+00  2.22551e-01
       C -2.69322e+00  1.63362e+00  9.57214e-02
       C  3.79181e+00  6.90284e-01  9.45537e-02
       C -3.76647e+00  7.29689e-01  1.74990e-01
       C  1.70052e+00  3.67618e+00  2.77133e-01
       C -1.59276e+00  3.58797e+00  8.40239e-02
       C  2.95048e+00  3.05342e+00  2.59645e-01
       C -2.87012e+00  3.05949e+00  7.81831e-02
       H  1.06539e+00 -3.23652e-01  3.38713e-02
       H -1.12909e+00 -3.64154e-01  9.32402e-03
       H  1.22476e+00 -4.59421e+00 -3.56968e-01
       H -1.28099e+00 -4.62201e+00 -2.08200e-01
       H  3.75964e+00 -3.67245e+00 -3.07167e-01
       H -3.86808e+00 -3.58073e+00  2.50171e-01
       H  4.77990e+00 -1.17668e+00  3.05344e-02
       H -4.82825e+00 -1.08171e+00  2.68772e-01
       H  4.85144e+00  1.09693e+00  1.43305e-01
       H -4.76163e+00  1.24896e+00  1.86299e-01
       H  1.58337e+00  4.74556e+00  3.01149e-01
       H -1.31213e+00  4.65435e+00  1.32584e-01
       H  3.90103e+00  3.54468e+00  3.87043e-01
       H -3.78582e+00  3.61979e+00  2.11917e-03
38
# CELL(abcABC):  105.20000   105.20000   105.20000    90.00000    90.00000    90.00000  Step:         110  Bead:       0 positions{angstrom}  cell{angstrom}
       N  1.43761e+00 -1.32859e+00 -1.35529e-01
       N -1.48757e+00 -1.35253e+00 -2.88714e-02
       N  1.41010e+00  1.34840e+00  1.51926e-01
       N -1.35343e+00  1.32469e+00  1.15432e-01
       C  6.47022e-01 -2.45401e+00 -1.70675e-01
       C -7.27750e-01 -2.49221e+00 -1.31898e-01
       C  2.78003e+00 -1.63551e+00 -1.84483e-01
       C -2.83211e+00 -1.64790e+00  8.05449e-02
       C  1.58137e+00 -3.57638e+00 -3.07490e-01
       C -1.67166e+00 -3.61067e+00 -4.71144e-02
       C  2.83380e+00 -3.03681e+00 -2.97557e-01
       C -2.94769e+00 -3.07634e+00  3.65069e-02
       C  3.79916e+00 -6.93067e-01 -7.98413e-02
       C -3.87483e+00 -6.71378e-01  1.78143e-01
       C  7.46423e-01  2.53829e+00  1.68060e-01
       C -6.65402e-01  2.48141e+00  1.28378e-01
       C  2.74896e+00  1.60713e+00  2.30028e-01
       C -2.70007e+00  1.64052e+00  1.01347e-01
       C  3.82149e+00  6.76530e-01  8.89446e-02
       C -3.78631e+00  7.26183e-01  1.79824e-01
       C  1.71483e+00  3.65187e+00  2.68388e-01
       C -1.58767e+00  3.60692e+00  8.12358e-02
       C  2.93108e+00  3.05840e+00  2.85319e-01
       C -2.84107e+00  3.06507e+00  6.58360e-02
       H  1.11149e+00 -3.34375e-01 -2.39727e-02
       H -1.13789e+00 -3.13007e-01 -4.57885e-02
       H  1.30416e+00 -4.63399e+00 -4.14641e-01
       H -1.29831e+00 -4.61767e+00 -1.67355e-01
       H  3.77154e+00 -3.57162e+00 -3.62992e-01
       H -3.89374e+00 -3.56286e+00  2.42220e-01
       H  4.77093e+00 -1.18025e+00 -2.61716e-02
       H -4.93807e+00 -1.07448e+00  2.73560e-01
       H  4.77787e+00  1.09745e+00  1.94568e-01
       H -4.69743e+00  1.27166e+00  2.20440e-01
       H  1.58641e+00  4.74326e+00  2.76641e-01
       H -1.24468e+00  4.61906e+00  1.10693e-01
       H  3.89794e+00  3.55573e+00  4.29583e-01
       H -3.76149e+00  3.64974e+00 -2.91228e-02
38
# CELL(abcABC):  105.20000   105.20000   105.20000    90.00000    90.00000    90.00000  Step:         120  Bead:       0 positions{angstrom}  cell{angstrom}
       N  1.42895e+00 -1.34734e+00 -1.50323e-01
       N -1.48594e+00 -1.34300e+00 -3.35335e-02
       N  1.41752e+00  1.35169e+00  1.51868e-01
       N -1.36995e+00  1.31232e+00  1.09680e-01
       C  6.69793e-01 -2.48505e+00 -1.86942e-01
       C -7.53532e-01 -2.48873e+00 -1.25350e-01
       C  2.77945e+00 -1.61765e+00 -1.67117e-01
       C -2.83909e+00 -1.64305e+00  1.00180e-01
       C  1.56022e+00 -3.56114e+00 -3.24077e-01
       C -1.68241e+00 -3.59877e+00 -5.73430e-02
       C  2.82781e+00 -3.03188e+00 -3.15395e-01
       C -2.95216e+00 -3.08479e+00  5.89134e-02
       C  3.82579e+00 -6.72708e-01 -8.54188e-02
       C -3.87849e+00 -6.71614e-01  1.97235e-01
       C  7.41962e-01  2.52262e+00  1.64554e-01
       C -6.82786e-01  2.48549e+00  1.51068e-01
       C  2.78139e+00  1.60445e+00  2.29372e-01
       C -2.69484e+00  1.63042e+00  1.05459e-01
       C  3.82651e+00  6.73468e-01  8.94468e-02
       C -3.79403e+00  7.26652e-01  1.81416e-01
       C  1.71368e+00  3.62370e+00  2.56844e-01
       C -1.57117e+00  3.61914e+00  8.08209e-02
       C  2.93141e+00  3.05367e+00  3.17749e-01
       C -2.81836e+00  3.09197e+00  5.21999e-02
       H  1.18264e+00 -3.17592e-01 -7.03233e-02
       H -1.22092e+00 -3.51515e-01 -6.47868e-02
       H  1.39866e+00 -4.61289e+00 -4.49849e-01
       H -1.41847e+00 -4.66352e+00 -8.75921e-02
       H  3.79479e+00 -3.51415e+00 -4.28563e-01
       H -3.89846e+00 -3.61343e+00  1.69685e-01
       H  4.80300e+00 -1.16136e+00 -1.36292e-01
       H -4.85279e+00 -1.04406e+00  2.53982e-01
       H  4.83475e+00  1.16834e+00  2.44815e-01
       H -4.77234e+00  1.27052e+00  2.62956e-01
       H  1.48510e+00  4.67095e+00  2.61480e-01
       H -1.23934e+00  4.67055e+00  6.88898e-02
       H  3.86980e+00  3.56158e+00  4.31792e-01
       H -3.74995e+00  3.62307e+00 -2.46260e-02
38
# CELL(abcABC):  105.20000   105.20000   105.20000    90.00000    90.00000    90.00000  Step:         130  Bead:       0 positions{angstrom}  cell{angstrom}
       N  1.42040e+00 -1.34652e+00 -1.59565e-01
       N -1.50714e+00 -1.34394e+00 -3.62239e-02
       N  1.43555e+00  1.33973e+00  1.49018e-01
       N -1.38059e+00  1.29914e+00  1.08530e-01
       C  6.70705e-01 -2.50401e+00 -2.03886e-01
       C -7.72964e-01 -2.49053e+00 -1.20338e-01
       C  2.75721e+00 -1.59776e+00 -1.56790e-01
       C -2.84316e+00 -1.63150e+00  1.16194e-01
       C  1.56413e+00 -3.55847e+00 -3.43191e-01
       C -1.68570e+00 -3.58665e+00 -6.83799e-02
       C  2.84846e+00 -3.03111e+00 -3.33860e-01
       C -2.95674e+00 -3.08044e+00  8.52575e-02
       C  3.85443e+00 -6.91269e-01 -9.26028e-02
       C -3.85862e+00 -6.68023e-01  2.12844e-01
       C  7.53258e-01  2.49645e+00  1.61546e-01
       C -6.93463e-01  2.49009e+00  1.67231e-01
       C  2.78721e+00  1.61518e+00  2.25421e-01
       C -2.69465e+00  1.62797e+00  1.06474e-01
       C  3.83823e+00  7.09445e-01  1.02504e-01
       C -3.80046e+00  7.39608e-01  1.82912e-01
       C  1.68522e+00  3.59589e+00  2.45976e-01
       C -1.54300e+00  3.63492e+00  8.21947e-02
       C  2.95205e+00  3.03944e+00  3.50538e-01
       C -2.81427e+00  3.11064e+00  4.05819e-02
       H  1.11760e+00 -3.21887e-01 -7.38625e-02
       H -1.17296e+00 -2.81231e-01 -4.51116e-02
       H  1.36901e+00 -4.62699e+00 -4.68144e-01
       H -1.52939e+00 -4.64953e+00 -9.91816e-03
       H  3.78120e+00 -3.56092e+00 -4.84487e-01
       H -3.86223e+00 -3.67700e+00  7.89750e-02
       H  4.84274e+00 -1.11817e+00 -2.47341e-01
       H -4.90506e+00 -1.11686e+00  2.56017e-01
       H  4.78840e+00  1.14055e+00  2.25536e-01
       H -4.76446e+00  1.18148e+00  2.77368e-01
       H  1.37012e+00  4.64937e+00  2.63574e-01
       H -1.29544e+00  4.67222e+00  2.46940e-02
       H  3.89450e+00  3.60239e+00  4.19139e-01
       H -3.78331e+00  3.62403e+00 -4.49432e-03
38
# CELL(abcABC):  105.20000   105.20000   105.20000    90.00000    90.00000    90.00000  Step:         140  Bead:       0 positions{angstrom}  cell{angstrom}
       N  1.40085e+00 -1.32873e+00 -1.60397e-01
       N -1.52608e+00 -1.33570e+00 -3.68213e-02
       N  1.45980e+00  1.30671e+00  1.43175e-01
       N -1.38117e+00  1.29693e+00  1.13860e-01
       C  6.39457e-01 -2.49525e+00 -2.19728e-01
       C -7.66661e-01 -2.49536e+00 -1.17199e-01
       C  2.74761e+00 -1.59517e+00 -1.60865e-01
       C -2.84408e+00 -1.62841e+00  1.25656e-01
       C  1.59867e+00 -3.57850e+00 -3.65456e-01
       C -1.69818e+00 -3.57803e+00 -7.34694e-02
       C  2.87080e+00 -3.02711e+00 -3.51943e-01
       C -2.95860e+00 -3.06079e+00  1.07958e-01
       C  3.86485e+00 -7.00787e-01 -9.94436e-02
       C -3.85174e+00 -6.61688e-01  2.25800e-01
       C  7.58002e-01  2.46258e+00  1.59172e-01
       C -6.72546e-01  2.48134e+00  1.72651e-01
       C  2.77133e+00  1.63174e+00  2.23124e-01
       C -2.70641e+00  1.64831e+00  1.03857e-01
       C  3.84675e+00  7.23907e-01  1.16059e-01
       C -3.79708e+00  7.40154e-01  1.84788e-01
       C  1.65942e+00  3.57598e+00  2.41764e-01
       C -1.53700e+00  3.63969e+00  8.29131e-02
       C  2.96249e+00  3.04694e+00  3.76822e-01
       C -2.82181e+00  3.11209e+00  3.40600e-02
       H  1.02088e+00 -3.72249e-01 -3.84261e-02
       H -1.16322e+00 -3.60469e-01  1.73578e-02
       H  1.26671e+00 -4.59998e+00 -4.70007e-01
       H -1.49492e+00 -4.65145e+00  7.65230e-03
       H  3.76446e+00 -3.63276e+00 -5.06194e-01
       H -3.84614e+00 -3.68725e+00  3.97965e-02
       H  4.85648e+00 -1.12229e+00 -3.10926e-01
       H -4.79976e+00 -1.10605e+00  2.78909e-01
       H  4.88709e+00  1.17541e+00  1.81627e-01
       H -4.81567e+00  1.19229e+00  2.66288e-01
       H  1.33560e+00  4.59798e+00  2.81038e-01
       H -1.28730e+00  4.71403e+00  2.80798e-03
       H  3.88457e+00  3.59593e+00  4.02586e-01
       H -3.75910e+00  3.64273e+00  1.62007e-02
38
# CELL(abcABC):  105.20000   105.20000   105.20000    90.00000    90.00000    90.00000  Step:         150  Bead:       0 positions{angstrom}  cell{angstrom}
       N  1.37179e+00 -1.32355e+00 -1.54350e-01