19
# CELL(abcABC):   78.60000    78.60000    78.60000    90.00000    90.00000    90.00000  Step:           0  Bead:       0 positions{angstrom}  cell{angstrom}
       O  3.10384e+00  1.00162e+00 -7.58093e-02
       O  9.12208e-01 -3.79413e-01 -7.69206e-01
       O -9.11708e-01 -3.75721e-01  7.68803e-01
       O -3.10373e+00  1.00326e+00  6.88313e-02
       H  3.41869e+00  1.76474e+00 -5.76618e-01
       H  3.61874e+00  9.76562e-01  7.40276e-01
       H  1.72040e+00  1.10711e-01 -4.83913e-01
       H  1.15624e+00 -1.21925e+00 -1.22631e+00
       H -3.61746e+00  9.75339e-01 -7.47896e-01
       H -3.41721e+00  1.76997e+00  5.65009e-01
       H  1.30415e-03 -4.11875e-01 -9.61682e-04
       H -1.71996e+00  1.13093e-01  4.81879e-01
       H -1.15575e+00 -1.21220e+00  1.23170e+00
       O -1.45232e+00 -2.65310e+00  2.08868e+00
       H -2.02715e+00 -3.37841e+00  1.81320e+00
       H -1.39299e+00 -2.70412e+00  3.05135e+00
       O  1.45331e+00 -2.66451e+00 -2.07266e+00
       H  1.39874e+00 -2.72156e+00 -3.03528e+00
       H  2.02219e+00 -3.39139e+00 -1.78915e+00
19
# CELL(abcABC):   78.60000    78.60000    78.60000    90.00000    90.00000    90.00000  Step:          10  Bead:       0 positions{angstrom}  cell{angstrom}
       O  3.06072e+00  1.01093e+00 -9.84138e-02
       O  9.08934e-01 -3.81957e-01 -7.76579e-01
       O -9.06817e-01 -3.69851e-01  7.79043e-01
       O -3.06303e+00  1.03215e+00  5.58449e-02
       H  3.36440e+00  1.81015e+00 -5.35972e-01
       H  3.51746e+00  9.87872e-01  7.53623e-01
       H  1.70365e+00  1.29039e-01 -4.62567e-01
       H  1.17469e+00 -1.23854e+00 -1.19342e+00
       H -3.63893e+00  9.18019e-01 -7.04000e-01
       H -3.38441e+00  1.78172e+00  5.65593e-01
       H  3.97608e-03 -4.70910e-01 -9.41079e-02
       H -1.68872e+00  1.72680e-01  4.98117e-01
       H -1.16487e+00 -1.25501e+00  1.12705e+00
       O -1.43025e+00 -2.66806e+00  2.10559e+00
       H -1.94379e+00 -3.48875e+00  1.85406e+00
       H -1.39991e+00 -2.66404e+00  3.07103e+00
       O  1.42752e+00 -2.68978e+00 -2.06294e+00
       H  1.39481e+00 -2.76402e+00 -3.03904e+00
       H  2.13912e+00 -3.26714e+00 -1.72033e+00
19
# CELL(abcABC):   78.60000    78.60000    78.60000    90.00000    90.00000    90.00000  Step:          20  Bead:       0 positions{angstrom}  cell{angstrom}
       O  3.01854e+00  1.01945e+00 -1.18628e-01
       O  9.06521e-01 -3.89402e-01 -7.87544e-01
       O -8.97830e-01 -3.66735e-01  7.83640e-01
       O -3.02039e+00  1.06056e+00  4.33918e-02
       H  3.30037e+00  1.86684e+00 -5.17902e-01
       H  3.41141e+00  9.93380e-01  7.63772e-01
       H  1.66254e+00  1.49613e-01 -4.44430e-01
       H  1.18932e+00 -1.23866e+00 -1.21229e+00
       H -3.67701e+00  8.74244e-01 -6.57327e-01
       H -3.37594e+00  1.80627e+00  5.55357e-01
       H  3.31820e-02 -4.08332e-01 -8.39161e-02
       H -1.67731e+00  1.67046e-01  5.33253e-01
       H -1.23404e+00 -1.25368e+00  1.08019e+00
       O -1.41167e+00 -2.69050e+00  2.12022e+00
       H -1.81051e+00 -3.50067e+00  1.92178e+00
       H -1.40411e+00 -2.61616e+00  3.08264e+00
       O  1.40430e+00 -2.71426e+00 -2.04951e+00
       H  1.41947e+00 -2.82335e+00 -2.98987e+00
       H  2.20200e+00 -3.13837e+00 -1.73703e+00
19
# CELL(abcABC):   78.60000    78.60000    78.60000    90.00000    90.00000    90.00000  Step:          30  Bead:       0 positions{angstrom}  cell{angstrom}
       O  2.97800e+00  1.03015e+00 -1.36816e-01
       O  9.03686e-01 -3.95494e-01 -7.98620e-01
       O -8.90896e-01 -3.68478e-01  7.86516e-01
       O -2.98228e+00  1.09095e+00  2.96735e-02
       H  3.21226e+00  1.88192e+00 -4.95422e-01
       H  3.31526e+00  1.00649e+00  7.67580e-01
       H  1.66497e+00  1.66624e-01 -4.87478e-01
       H  1.16488e+00 -1.22881e+00 -1.26057e+00
       H -3.67331e+00  8.39134e-01 -5.77753e-01
       H -3.35903e+00  1.81563e+00  5.32624e-01
       H  4.95952e-02 -3.74392e-01 -3.71287e-02
       H -1.69076e+00  1.81447e-01  5.45369e-01
       H -1.24106e+00 -1.21539e+00  1.09861e+00
       O -1.38997e+00 -2.70523e+00  2.13474e+00
       H -1.73630e+00 -3.64430e+00  1.96757e+00
       H -1.40933e+00 -2.56601e+00  3.09527e+00
       O  1.38407e+00 -2.73618e+00 -2.02961e+00
       H  1.41856e+00 -2.87459e+00 -3.01273e+00
       H  2.27395e+00 -3.05550e+00 -1.75154e+00
19
# CELL(abcABC):   78.60000    78.60000    78.60000    90.00000    90.00000    90.00000  Step:          40  Bead:       0 positions{angstrom}  cell{angstrom}
       O  2.93772e+00  1.03876e+00 -1.51393e-01
       O  8.99095e-01 -3.95206e-01 -8.06087e-01
       O -8.90253e-01 -3.65632e-01  7.88234e-01
       O -2.94620e+00  1.12313e+00  1.66205e-02
       H  3.12981e+00  1.93274e+00 -4.96829e-01
       H  3.23759e+00  1.03223e+00  7.69949e-01
       H  1.70832e+00  1.48345e-01 -6.08087e-01
       H  1.09520e+00 -1.22619e+00 -1.30824e+00
       H -3.67411e+00  7.71263e-01 -5.36422e-01
       H -3.32672e+00  1.85090e+00  5.39457e-01
       H  3.41799e-02 -4.49979e-01 -3.39396e-02
       H -1.64652e+00  1.93953e-01  5.33966e-01
       H -1.17609e+00 -1.24897e+00  1.18006e+00
       O -1.37218e+00 -2.72755e+00  2.14721e+00
       H -1.60500e+00 -3.62946e+00  2.05463e+00
       H -1.41877e+00 -2.54375e+00  3.08453e+00
       O  1.37577e+00 -2.75936e+00 -2.01440e+00
       H  1.34655e+00 -2.88481e+00 -2.95377e+00
       H  2.26397e+00 -2.98912e+00 -1.75041e+00
19
# CELL(abcABC):   78.60000    78.60000    78.60000    90.00000    90.00000    90.00000  Step:          50  Bead:       0 positions{angstrom}  cell{angstrom}
       O  2.90047e+00  1.05142e+00 -1.64920e-01
       O  8.90460e-01 -3.98573e-01 -8.16109e-01
       O -8.83563e-01 -3.72767e-01  7.92514e-01
       O -2.91428e+00  1.15581e+00  2.81411e-03
       H  3.03972e+00  1.94474e+00 -4.92666e-01
       H  3.16652e+00  1.05984e+00  7.59363e-01
       H  1.72916e+00  1.20498e-01 -6.99565e-01
       H  1.01137e+00 -1.21853e+00 -1.34954e+00
       H -3.63413e+00  7.29572e-01 -4.65867e-01
       H -3.28444e+00  1.86860e+00  5.27786e-01
       H  2.38735e-02 -4.59277e-01 -2.70394e-02
       H -1.66628e+00  1.92968e-01  5.05543e-01
       H -1.10865e+00 -1.19261e+00  1.22850e+00
       O -1.35209e+00 -2.74175e+00  2.15983e+00
       H -1.51045e+00 -3.71037e+00  2.09828e+00
       H -1.42767e+00 -2.52395e+00  3.11344e+00
       O  1.36816e+00 -2.77742e+00 -1.99494e+00
       H  1.25869e+00 -2.90817e+00 -2.95842e+00
       H  2.28818e+00 -2.98695e+00 -1.74911e+00
19
# CELL(abcABC):   78.60000    78.60000    78.60000    90.00000    90.00000    90.00000  Step:          60  Bead:       0 positions{angstrom}  cell{angstrom}
       O  2.86582e+00  1.06614e+00 -1.78623e-01
       O  8.74823e-01 -4.08508e-01 -8.32217e-01
       O -8.71364e-01 -3.74381e-01  7.90900e-01
       O -2.87934e+00  1.18550e+00 -1.08152e-02
       H  2.96159e+00  1.96921e+00 -5.03932e-01
       H  3.10604e+00  1.08057e+00  7.61777e-01
       H  1.70753e+00  1.06122e-01 -6.93891e-01
       H  9.62379e-01 -1.22541e+00 -1.37643e+00
       H -3.62835e+00  7.15258e-01 -4.06015e-01
       H -3.26505e+00  1.90081e+00  5.18015e-01
       H  3.68931e-02 -3.69671e-01  6.56486e-03
       H -1.66994e+00  1.15595e-01  5.24924e-01
       H -1.11764e+00 -1.21683e+00  1.29407e+00
       O -1.33335e+00 -2.75480e+00  2.17757e+00
       H -1.39595e+00 -3.73362e+00  2.11737e+00
       H -1.43281e+00 -2.54135e+00  3.09957e+00
       O  1.36046e+00 -2.79053e+00 -1.97502e+00
       H  1.21317e+00 -2.96027e+00 -2.91778e+00
       H  2.28270e+00 -3.03047e+00 -1.81618e+00
19
# CELL(abcABC):   78.60000    78.60000    78.60000    90.00000    90.00000    90.00000  Step:          70  Bead:       0 positions{angstrom}  cell{angstrom}
       O  2.83386e+00  1.08268e+00 -1.90578e-01
       O  8.51060e-01 -4.17068e-01 -8.49184e-01
       O -8.59910e-01 -3.81803e-01  7.97482e-01
       O -2.84683e+00  1.21184e+00 -2.40339e-02
       H  2.89426e+00  1.99846e+00 -5.18512e-01
       H  3.05714e+00  1.10733e+00  7.45360e-01
       H  1.68629e+00  9.06746e-02 -6.58245e-01
       H  9.74486e-01 -1.25711e+00 -1.35398e+00
       H -3.62878e+00  7.35590e-01 -3.58530e-01
       H -3.22841e+00  1.93059e+00  5.02134e-01
       H  5.96348e-02 -3.63576e-01 -2.65737e-02
       H -1.69924e+00  1.02233e-01  5.41954e-01
       H -1.06295e+00 -1.19660e+00  1.24758e+00
       O -1.31391e+00 -2.76675e+00  2.19443e+00
       H -1.28968e+00 -3.69978e+00  2.11116e+00
       H -1.44347e+00 -2.58261e+00  3.14520e+00
       O  1.35354e+00 -2.80144e+00 -1.95798e+00
       H  1.15959e+00 -3.02595e+00 -2.86993e+00
       H  2.26961e+00 -3.09350e+00 -1.87323e+00
19
# CELL(abcABC):   78.60000    78.60000    78.60000    90.00000    90.00000    90.00000  Step:          80  Bead:       0 positions{angstrom}  cell{angstrom}
       O  2.80330e+00  1.10162e+00 -2.02307e-01
       O  8.26214e-01 -4.22650e-01 -8.68330e-01
       O -8.52701e-01 -3.82302e-01  8.05370e-01
       O -2.82096e+00  1.23433e+00 -3.61750e-02
       H  2.83413e+00  1.99946e+00 -5.27935e-01
       H  3.03268e+00  1.14701e+00  7.36690e-01
       H  1.65540e+00  7.96094e-02 -6.36085e-01
       H  1.02832e+00 -1.30362e+00 -1.28179e+00
       H -3.60446e+00  7.81239e-01 -3.43473e-01
       H -3.14608e+00  1.97038e+00  4.91207e-01
       H  5.43291e-02 -4.60220e-01 -1.20267e-01
       H -1.65546e+00  1.13763e-01  5.79335e-01
       H -1.01327e+00 -1.28506e+00  1.22416e+00
       O -1.29530e+00 -2.76805e+00  2.21551e+00
       H -1.17344e+00 -3.76091e+00  2.07194e+00
       H -1.45269e+00 -2.65868e+00  3.16448e+00
       O  1.35058e+00 -2.81215e+00 -1.94479e+00
       H  1.03218e+00 -3.08925e+00 -2.83967e+00
       H  2.26268e+00 -3.15835e+00 -1.87054e+00
19
# CELL(abcABC):   78.60000    78.60000    78.60000    90.00000    90.00000    90.00000  Step:          90  Bead:       0 positions{angstrom}  cell{angstrom}
       O  2.77369e+00  1.11864e+00 -2.10839e-01
       O  8.08438e-01 -4.34983e-01 -8.98615e-01
       O -8.40289e-01 -3.94488e-01  8.18717e-01
       O -2.79536e+00  1.25429e+00 -4.63542e-02
       H  2.77802e+00  2.03035e+00 -5.65421e-01
       H  3.02750e+00  1.19239e+00  7.22318e-01
       H  1.58784e+00  1.16410e-01 -5.95219e-01
       H  1.08945e+00 -1.33047e+00 -1.22021e+00
       H -3.62070e+00  8.32648e-01 -3.66500e-01
       H -3.05118e+00  2.03069e+00  4.85433e-01
       H -3.31677e-03 -4.83495e-01 -1.40366e-01
       H -1.66388e+00  1.36165e-01  6.20820e-01
       H -1.04180e+00 -1.25322e+00  1.19916e+00
       O -1.27506e+00 -2.77731e+00  2.23563e+00
       H -1.08263e+00 -3.66624e+00  2.04707e+00
       H -1.45775e+00 -2.73868e+00  3.17099e+00
       O  1.34938e+00 -2.82473e+00 -1.93637e+00
       H  9.29101e-01 -3.12109e+00 -2.72724e+00
       H  2.21036e+00 -3.22130e+00 -1.86987e+00
19
# CELL(abcABC):   78.60000    78.60000    78.60000    90.00000    90.00000    90.00000  Step:         100  Bead:       0 positions{angstrom}  cell{angstrom}
       O  2.74419e+00  1.13866e+00 -2.17079e-01
       O  7.93044e-01 -4.50796e-01 -9.30874e-01
       O -8.31005e-01 -4.05110e-01  8.30782e-01
       O -2.77159e+00  1.27108e+00 -5.41903e-02
       H  2.72917e+00  2.01815e+00 -6.00442e-01
       H  3.03723e+00  1.24260e+00  6.91559e-01
       H  1.50440e+00  1.56004e-01 -5.91383e-01
       H  1.13982e+00 -1.33263e+00 -1.21210e+00
       H -3.61137e+00  9.50689e-01 -3.76659e-01
       H -2.97292e+00  2.06223e+00  4.43964e-01
       H -3.56256e-02 -4.38894e-01 -1.26677e-01
       H -1.62821e+00  1.28733e-01  6.53222e-01
       H -1.12552e+00 -1.26093e+00  1.26321e+00
       O -1.25513e+00 -2.77777e+00  2.25332e+00
       H -9.75751e-01 -3.69587e+00  1.99377e+00
       H -1.47358e+00 -2.81639e+00  3.22063e+00
       O  1.34733e+00 -2.83241e+00 -1.92027e+00
       H  8.25989e-01 -3.18525e+00 -2.68163e+00
       H  2.19148e+00 -3.33951e+00 -1.90911e+00
19
# CELL(abcABC):   78.60000    78.60000    78.60000    90.00000    90.00000    90.00000  Step:         110  Bead:       0 positions{angstrom}  cell{angstrom}
       O  2.71301e+00  1.15834e+00 -2.22222e-01
       O  7.72513e-01 -4.61079e-01 -9.56553e-01
       O -8.28846e-01 -4.20634e-01  8.47049e-01
       O -2.74650e+00  1.28566e+00 -5.94924e-02
       H  2.69916e+00  2.02871e+00 -6.48933e-01
       H  3.06832e+00  1.30057e+00  6.75033e-01
       H  1.49051e+00  1.66673e-01 -6.64097e-01
       H  1.15696e+00 -1.32958e+00 -1.23646e+00
       H -3.62995e+00  1.06338e+00 -4.13895e-01
       H -2.90045e+00  2.13052e+00  4.09701e-01
       H -3.82182e-03 -4.99287e-01 -1.47885e-01
       H -1.60428e+00  1.64618e-01  6.37901e-01
       H -1.12072e+00 -1.21872e+00  1.32248e+00
       O -1.23523e+00 -2.78250e+00  2.27345e+00
       H -9.01075e-01 -3.63421e+00  1.97231e+00
       H -1.46482e+00 -2.89344e+00  3.17404e+00
       O  1.34824e+00 -2.84650e+00 -1.90669e+00
       H  7.65548e-01 -3.20416e+00 -2.57594e+00
       H  2.10755e+00 -3.42161e+00 -1.95562e+00
19
# CELL(abcABC):   78.60000    78.60000    78.60000    90.00000    90.00000    90.00000  Step:         120  Bead:       0 positions{angstrom}  cell{angstrom}
       O  2.68115e+00  1.18095e+00 -2.26403e-01
       O  7.51675e-01 -4.67312e-01 -9.78426e-01
       O -8.30048e-01 -4.31781e-01  8.61246e-01
       O -2.72739e+00  1.30406e+00 -6.17486e-02
       H  2.69446e+00  2.03144e+00 -6.93329e-01
       H  3.08611e+00  1.34332e+00  6.26587e-01
       H  1.50503e+00  1.47041e-01 -7.47351e-01
       H  1.12310e+00 -1.33486e+00 -1.28728e+00
       H -3.59264e+00  1.15312e+00 -4.58832e-01
       H -2.78904e+00  2.16730e+00  3.54219e-01
       H  6.28551e-02 -6.06415e-01 -1.66973e-01
       H -1.56916e+00  1.56759e-01  6.16282e-01
       H -1.09218e+00 -1.20913e+00  1.40082e+00
       O -1.21361e+00 -2.78439e+00  2.28607e+00
       H -8.35555e-01 -3.59574e+00  1.95542e+00
       H -1.48222e+00 -2.97582e+00  3.22492e+00
       O  1.34915e+00 -2.86460e+00 -1.89381e+00
       H  6.56685e-01 -3.18720e+00 -2.49421e+00
       H  2.09030e+00 -3.49403e+00 -1.96237e+00
19
# CELL(abcABC):   78.60000    78.60000    78.60000    90.00000    90.00000    90.00000  Step:         130  Bead:       0 positions{angstrom}  cell{angstrom}
       O  2.64764e+00  1.20631e+00 -2.35254e-01
       O  7.36398e-01 -4.77981e-01 -1.00244e+00
       O -8.24632e-01 -4.45957e-01  8.72441e-01
       O -2.70827e+00  1.32362e+00 -6.29259e-02
       H  2.70960e+00  2.02567e+00 -7.31013e-01
       H  3.10398e+00  1.36320e+00  6.07666e-01
       H  1.49460e+00  1.21394e-01 -7.62075e-01
       H  1.06785e+00 -1.34423e+00 -1.36641e+00
       H -3.55262e+00  1.21937e+00 -5.11097e-01
       H -2.67693e+00  2.21944e+00  3.03166e-01
       H  9.19229e-02 -5.90162e-01 -1.31415e-01
       H -1.59803e+00  1.01983e-01  6.09850e-01
       H -1.09714e+00 -1.17135e+00  1.49008e+00
       O -1.19443e+00 -2.78517e+00  2.30473e+00
       H -7.57446e-01 -3.59455e+00  1.92702e+00
       H -1.47817e+00 -3.02984e+00  3.18254e+00
       O  1.34890e+00 -2.88533e+00 -1.88228e+00
       H  5.75372e-01 -3.16820e+00 -2.40359e+00
       H  2.05911e+00 -3.53445e+00 -1.96351e+00
19
# CELL(abcABC):   78.60000    78.60000    78.60000    90.00000    90.00000    90.00000  Step:         140  Bead:       0 positions{angstrom}  cell{angstrom}
       O  2.61346e+00  1.23220e+00 -2.45098e-01
       O  7.23179e-01 -4.89759e-01 -1.02249e+00
       O -8.18063e-01 -4.60876e-01  8.83490e-01
       O -2.68643e+00  1.34246e+00 -6.21694e-02
       H  2.74306e+00  2.03945e+00 -7.76095e-01
       H  3.10480e+00  1.35718e+00  5.77105e-01
       H  1.48856e+00  8.91906e-02 -7.56667e-01
       H  1.03421e+00 -1.34774e+00 -1.40696e+00
       H -3.52319e+00  1.30321e+00 -5.62009e-01
       H -2.59350e+00  2.26215e+00  2.32431e-01
       H  5.93672e-02 -5.26167e-01 -1.25723e-01
       H -1.62819e+00  2.75105e-02  6.10947e-01
       H -1.07051e+00 -1.13221e+00  1.52656e+00
       O -1.17173e+00 -2.79004e+00  2.31825e+00
       H -7.29913e-01 -3.52325e+00  1.94266e+00
       H -1.48691e+00 -3.07915e+00  3.18217e+00
       O  1.34257e+00 -2.90248e+00 -1.86967e+00
       H  5.71911e-01 -3.21416e+00 -2.33232e+00
       H  2.01412e+00 -3.57436e+00 -1.98849e+00
19
# CELL(abcABC):   78.60000    78.60000    78.60000    90.00000    90.00000    90.00000  Step:         150  Bead:       0 positions{angstrom}  cell{angstrom}
       O  2.57861e+00  1.25966e+00 -2.57924e-01
       O  7.08847e-01 -4.94376e-01 -1.03283e+00
       O -8.13563e-01 -4.68871e-01  8.88580e-01
       O -2.66589e+00  1.36190e+00 -6.24098e-02
       H  2.78371e+00  2.02688e+00 -7.95832e-01
       H  3.09886e+00  1.34161e+00  5.44744e-01
       H  1.49895e+00  5.78722e-02 -7.83527e-01
       H  1.02479e+00 -1.37284e+00 -1.37145e+00
       H -3.46210e+00  1.38269e+00 -5.89038e-01
       H -2.51999e+00  2.28173e+00  1.62065e-01
       H  9.32978e-03 -5.56108e-01 -1.93404e-01
       H -1.63076e+00 -1.44110e-02  6.22090e-01
       H -9.88857e-01 -1.19782e+00  1.56367e+00
       O -1.15163e+00 -2.78842e+00  2.33358e+00
       H -6.56538e-01 -3.54334e+00  1.92362e+00
       H -1.50713e+00 -3.12896e+00  3.19673e+00
       O  1.33220e+00 -2.91832e+00 -1.85660e+00
       H  5.41050e-01 -3.30954e+00 -2.30493e+00
       H  2.02128e+00 -3.60459e+00 -2.01118e+00
19
# CELL(abcABC):   78.60000    78.60000    78.60000    90.00000    90.00000    90.00000  Step:         160  Bead:       0 positions{angstrom}  cell{angstrom}
       O  2.54252e+00  1.28538e+00 -2.72501e-01
       O  6.96439e-01 -4.99098e-01 -1.04050e+00
       O -8.06747e-01 -4.80162e-01  8.91824e-01
       O -2.64530e+00  1.38172e+00 -6.29703e-02
       H  2.83016e+00  2.02881e+00 -8.26819e-01
       H  3.09886e+00  1.31580e+00  5.29640e-01
       H  1.47233e+00  7.32121e-02 -7.91878e-01
       H  1.01430e+00 -1.40145e+00 -1.30855e+00
       H -3.43457e+00  1.42026e+00 -6.37983e-01
       H -2.41256e+00  2.31413e+00  1.24379e-01
       H -3.92830e-03 -5.95111e-01 -2.23127e-01
       H -1.66107e+00 -3.00022e-02  6.81883e-01
       H -9.11922e-01 -1.21030e+00  1.49076e+00
       O -1.13013e+00 -2.79274e+00  2.35021e+00
       H -6.36139e-01 -3.50960e+00  1.96198e+00
       H -1.49155e+00 -3.13170e+00  3.13579e+00
       O  1.31564e+00 -2.94517e+00 -1.84948e+00
       H  5.58876e-01 -3.35196e+00 -2.24887e+00
       H  2.04622e+00 -3.53283e+00 -1.99000e+00
19
# CELL(abcABC):   78.60000    78.60000    78.60000    90.00000    90.00000    90.00000  Step:         170  Bead:       0 positions{angstrom}  cell{angstrom}
       O  2.50833e+00  1.31121e+00 -2.86878e-01
       O  6.85740e-01 -5.09238e-01 -1.04634e+00
       O -7.97886e-01 -4.85889e-01  8.84674e-01
       O -2.62547e+00  1.40398e+00 -6.47524e-02
       H  2.86611e+00  2.00909e+00 -8.51345e-01
       H  3.06808e+00  1.28050e+00  4.85852e-01
       H  1.40719e+00  1.28325e-01 -7.79419e-01
       H  1.02949e+00 -1.41238e+00 -1.28599e+00
       H -3.37571e+00  1.44640e+00 -6.56008e-01
       H -2.32114e+00  2.29288e+00  8.74805e-02
       H  1.36307e-03 -5.36137e-01 -1.86523e-01
       H -1.65701e+00 -5.34679e-02  7.78207e-01
       H -9.17536e-01 -1.29688e+00  1.48585e+00
       O -1.10489e+00 -2.79307e+00  2.35923e+00
       H -5.97659e-01 -3.53035e+00  1.99346e+00
       H -1.53862e+00 -3.15394e+00  3.19742e+00
       O  1.29633e+00 -2.96903e+00 -1.83917e+00
       H  5.38049e-01 -3.43823e+00 -2.24363e+00
       H  2.12942e+00 -3.47419e+00 -1.97253e+00
19
# CELL(abcABC):   78.60000    78.60000    78.60000    90.00000    90.00000    90.00000  Step:         180  Bead:       0 positions{angstrom}  cell{angstrom}
       O  2.47299e+00  1.33603e+00 -3.03725e-01
       O  6.74816e-01 -5.16314e-01 -1.04377e+00
       O -7.89417e-01 -5.00436e-01  8.83420e-01
       O -2.60251e+00  1.42017e+00 -6.43553e-02
       H  2.89055e+00  1.98520e+00 -8.81071e-01
       H  3.05147e+00  1.24286e+00  4.76727e-01
       H  1.37180e+00  1.55616e-01 -8.27945e-01
       H  1.05357e+00 -1.39692e+00 -1.29231e+00
       H -3.34282e+00  1.49678e+00 -6.84758e-01
       H -2.24993e+00  2.32295e+00  4.65309e-02
       H -2.65957e-02 -4.98539e-01 -1.74752e-01
       H -1.64943e+00 -2.22918e-02  8.20298e-01
       H -9.21796e-01 -1.27545e+00  1.41789e+00
       O -1.08139e+00 -2.79839e+00  2.37330e+00
       H -5.70673e-01 -3.56503e+00  2.04811e+00
       H -1.53062e+00 -3.09109e+00  3.14133e+00
       O  1.27631e+00 -2.99155e+00 -1.82595e+00
       H  6.14710e-01 -3.54864e+00 -2.25147e+00
       H  2.12194e+00 -3.40952e+00 -1.97845e+00
19
# CELL(abcABC):   78.60000    78.60000    78.60000    90.00000    90.00000    90.00000  Step:         190  Bead:       0 positions{angstrom}  cell{angstrom}
       O  2.43834e+00  1.35909e+00 -3.19768e-01
       O  6.63432e-01 -5.15743e-01 -1.03529e+00
       O -7.85286e-01 -5.07603e-01  8.80182e-01
       O -2.57734e+00  1.43740e+00 -6.33391e-02
       H  2.91559e+00  1.96510e+00 -9.09694e-01
       H  3.01163e+00  1.21670e+00  4.40237e-01
       H  1.38402e+00  1.62293e-01 -9.18796e-01
       H  1.02824e+00 -1.39043e+00 -1.30928e+00
       H -3.30392e+00  1.54064e+00 -6.95289e-01
       H -2.20995e+00  2.32542e+00  3.45543e-03
       H -6.14332e-02 -5.67772e-01 -1.88959e-01
       H -1.58753e+00  3.50868e-02  7.92534e-01
       H -9.26939e-01 -1.35197e+00  1.42731e+00
       O -1.05223e+00 -2.80394e+00  2.37888e+00
       H -5.70610e-01 -3.58491e+00  2.13010e+00
       H -1.57451e+00 -3.04432e+00  3.17660e+00
       O  1.25631e+00 -3.01340e+00 -1.81071e+00
       H  6.85777e-01 -3.64140e+00 -2.26905e+00
       H  2.14189e+00 -3.36846e+00 -1.99435e+00
19
# CELL(abcABC):   78.60000    78.60000    78.60000    90.00000    90.00000    90.00000  Step:         200  Bead:       0 positions{angstrom}  cell{angstrom}
       O  2.40432e+00  1.38145e+00 -3.39648e-01
       O  6.53937e-01 -5.14454e-01 -1.03070e+00
       O -7.80093e-01 -5.21306e-01  8.78797e-01
       O -2.55116e+00  1.45655e+00 -6.34228e-02
       H  2.92802e+00  1.94279e+00 -9.20787e-01
       H  2.97235e+00  1.19713e+00  4.18069e-01
       H  1.37077e+00  1.53192e-01 -9.40633e-01
       H  9.50086e-01 -1.39793e+00 -1.35736e+00
       H -3.27413e+00  1.53357e+00 -6.89350e-01
       H -2.15877e+00  2.33395e+00 -9.74669e-03
       H -5.94055e-02 -6.03286e-01 -1.37106e-01
       H -1.55146e+00  7.00280e-02  7.41113e-01
       H -9.67961e-01 -1.30359e+00  1.39849e+00
       O -1.02467e+00 -2.80849e+00  2.38550e+00
       H -5.55936e-01 -3.65319e+00  2.21833e+00
       H -1.59905e+00 -2.96002e+00  3.16872e+00
       O  1.24166e+00 -3.04053e+00 -1.79678e+00
       H  6.95691e-01 -3.69161e+00 -2.28434e+00
       H  2.16988e+00 -3.28411e+00 -1.98081e+00
19
# CELL(abcABC):   78.60000    78.60000    78.60000    90.00000    90.00000    90.00000  Step:         210  Bead:       0 positions{angstrom}  cell{angstrom}
       O  2.37153e+00  1.40205e+00 -3.61446e-01
       O  6.40179e-01 -5.18184e-01 -1.02930e+00
       O -7.74387e-01 -5.28648e-01  8.73068e-01
       O -2.52142e+00  1.47447e+00 -6.15785e-02
       H  2.93401e+00  1.93969e+00 -9.40767e-01
       H  2.92510e+00  1.18179e+00  4.11930e-01
       H  1.38016e+00  1.38243e-01 -9.01652e-01
       H  8.76846e-01 -1.38820e+00 -1.42937e+00
       H -3.26555e+00  1.50765e+00 -6.87965e-01
       H -2.11637e+00  2.36001e+00 -1.65455e-02
       H -1.73741e-02 -5.67016e-01 -5.40934e-02
       H -1.53625e+00  6.71197e-02  6.78514e-01
       H -1.04403e+00 -1.32489e+00  1.42916e+00
       O -9.98070e-01 -2.81492e+00  2.39275e+00
       H -5.75869e-01 -3.67089e+00  2.32384e+00
       H -1.58218e+00 -2.88024e+00  3.12250e+00
       O  1.23085e+00 -3.06938e+00 -1.78402e+00
       H  7.15390e-01 -3.68962e+00 -2.28211e+00
       H  2.15178e+00 -3.21244e+00 -1.96098e+00
19
# CELL(abcABC):   78.60000    78.60000    78.60000    90.00000    90.00000    90.00000  Step:         220  Bead:       0 positions{angstrom}  cell{angstrom}
       O  2.34193e+00  1.41971e+00 -3.82513e-01
       O  6.25405e-01 -5.18652e-01 -1.02586e+00
       O -7.76353e-01 -5.33749e-01  8.73782e-01
       O -2.48844e+00  1.48971e+00 -5.77968e-02
       H  2.91906e+00  1.93830e+00 -9.56065e-01
       H  2.85989e+00  1.19890e+00  3.88111e-01
       H  1.39740e+00  7.39125e-02 -9.06625e-01
       H  8.41392e-01 -1.36960e+00 -1.47149e+00
       H -3.22708e+00  1.50733e+00 -6.64709e-01
       H -2.12885e+00  2.37098e+00 -4.53496e-02
       H  1.67490e-03 -5.96019e-01 -3.69712e-02
       H -1.51737e+00  4.60801e-02  6.15018e-01
       H -1.03450e+00 -1.31474e+00  1.38516e+00
       O -9.70462e-01 -2.81838e+00  2.39586e+00
       H -5.74911e-01 -3.70327e+00  2.40506e+00
       H -1.63156e+00 -2.80277e+00  3.16574e+00
       O  1.21852e+00 -3.08961e+00 -1.76566e+00
       H  7.34186e-01 -3.73313e+00 -2.33349e+00
       H  2.17587e+00 -3.21233e+00 -1.98418e+00
19
# CELL(abcABC):   78.60000    78.60000    78.60000    90.00000    90.00000    90.00000  Step:         230  Bead:       0 positions{angstrom}  cell{angstrom}
       O  2.31203e+00  1.43341e+00 -4.05532e-01
       O  6.12215e-01 -5.19941e-01 -1.02448e+00
       O -7.78455e-01 -5.32604e-01  8.74801e-01
       O -2.45297e+00  1.49946e+00 -5.19730e-02
       H  2.90007e+00  1.95030e+00 -9.74100e-01
       H  2.82838e+00  1.24608e+00  4.06969e-01
       H  1.42929e+00  4.74589e-02 -9.42295e-01
       H  8.20202e-01 -1.37240e+00 -1.46689e+00
       H -3.21581e+00  1.50686e+00 -6.57710e-01
       H -2.13311e+00  2.42667e+00 -6.82559e-02
       H -3.63476e-02 -6.61191e-01 -6.65395e-02
       H -1.54202e+00  3.40892e-02  5.76027e-01
       H -1.00259e+00 -1.37129e+00  1.35560e+00
       O -9.52098e-01 -2.81993e+00  2.40710e+00
       H -5.80239e-01 -3.70930e+00  2.47076e+00
       H -1.56195e+00 -2.75211e+00  3.09819e+00
       O  1.21049e+00 -3.11024e+00 -1.75193e+00
       H  7.79626e-01 -3.72215e+00 -2.34498e+00
       H  2.11997e+00 -3.23743e+00 -1.98818e+00
19
# CELL(abcABC):   78.60000    78.60000    78.60000    90.00000    90.00000    90.00000  Step:         240  Bead:       0 positions{angstrom}  cell{angstrom}
       O  2.28645e+00  1.44250e+00 -4.26399e-01
       O  6.05753e-01 -5.26942e-01 -1.03183e+00
       O -7.82349e-01 -5.32428e-01  8.74149e-01
       O -2.41851e+00  1.51162e+00 -4.91843e-02
       H  2.86738e+00  1.97038e+00 -9.90781e-01
       H  2.77299e+00  1.33718e+00  3.92914e-01
       H  1.37687e+00  6.17170e-02 -9.41581e-01
       H  8.08071e-01 -1.39842e+00 -1.44305e+00
       H -3.18960e+00  1.47725e+00 -6.22684e-01
       H -2.12689e+00  2.42163e+00 -5.73014e-02
       H -9.08523e-02 -6.14480e-01 -5.91729e-02
       H -1.55831e+00 -1.47815e-02  6.18527e-01
       H -9.84885e-01 -1.39288e+00  1.31810e+00
       O -9.30689e-01 -2.81962e+00  2.41175e+00
       H -5.73602e-01 -3.70970e+00  2.50818e+00
       H -1.58534e+00 -2.70590e+00  3.16072e+00
       O  1.20353e+00 -3.12953e+00 -1.74116e+00
       H  7.28746e-01 -3.71848e+00 -2.35828e+00
       H  2.15499e+00 -3.25560e+00 -1.95782e+00
19
# CELL(abcABC):   78.60000    78.60000    78.60000    90.00000    90.00000    90.00000  Step:         250  Bead:       0 positions{angstrom}  cell{angstrom}
       O  2.26375e+00  1.44998e+00 -4.47930e-01
       O  5.96896e-01 -5.40464e-01 -1.04533e+00
       O -7.87476e-01 -5.35915e-01  8.75017e-01
       O -2.38469e+00  1.51822e+00 -4.64434e-02
       H  2.81366e+00  1.99810e+00 -1.02466e+00
       H  2.71937e+00  1.43660e+00  4.09785e-01
       H  1.34067e+00  1.19133e-01 -9.32602e-01
       H  8.44507e-01 -1.42156e+00 -1.40087e+00
       H -3.17787e+00  1.45618e+00 -5.93024e-01
       H -2.09963e+00  2.44325e+00 -3.01940e-02
       H -1.05753e-01 -5.14378e-01 -5.49183e-02
       H -1.62300e+00 -1.15873e-02  6.99286e-01
       H -9.62138e-01 -1.39899e+00  1.30064e+00
       O -9.17154e-01 -2.81534e+00  2.42127e+00
       H -5.59982e-01 -3.70660e+00  2.52208e+00
       H -1.52328e+00 -2.69239e+00  3.15994e+00
       O  1.20032e+00 -3.14817e+00 -1.73453e+00
       H  6.78953e-01 -3.68608e+00 -2.34330e+00
       H  2.13560e+00 -3.28943e+00 -1.90195e+00
19
# CELL(abcABC):   78.60000    78.60000    78.60000    90.00000    90.00000    90.00000  Step:         260  Bead:       0 positions{angstrom}  cell{angstrom}
       O  2.24413e+00  1.45671e+00 -4.67887e-01
       O  5.88104e-01 -5.48137e-01 -1.05885e+00
       O -8.03149e-01 -5.33126e-01  8.78728e-01
       O -2.35024e+00  1.51930e+00 -4.25432e-02
       H  2.74376e+00  2.02569e+00 -1.06624e+00
       H  2.64907e+00  1.54567e+00  4.09788e-01
       H  1.29890e+00  1.11175e-01 -9.73360e-01
       H  9.20895e-01 -1.44200e+00 -1.33021e+00
       H -3.16459e+00  1.48398e+00 -5.66360e-01
       H -2.09755e+00  2.45568e+00 -6.16636e-03
       H -9.52240e-02 -5.26225e-01 -1.16308e-01
       H -1.59960e+00 -7.29273e-03  8.02474e-01
       H -9.03143e-01 -1.43444e+00  1.30704e+00
       O -9.05531e-01 -2.80841e+00  2.42993e+00
       H -5.36913e-01 -3.69953e+00  2.50759e+00
       H -1.47039e+00 -2.69321e+00  3.18996e+00
       O  1.19488e+00 -3.15975e+00 -1.72435e+00
       H  6.75209e-01 -3.67182e+00 -2.34781e+00
       H  2.11554e+00 -3.38794e+00 -1.88872e+00
19
# CELL(abcABC):   78.60000    78.60000    78.60000    90.00000    90.00000    90.00000  Step:         270  Bead:       0 positions{angstrom}  cell{angstrom}
       O  2.22536e+00  1.46289e+00 -4.87519e-01
       O  5.78871e-01 -5.58579e-01 -1.07461e+00
       O -8.12069e-01 -5.37232e-01  8.84671e-01
       O -2.31728e+00  1.51923e+00 -3.89881e-02
       H  2.67571e+00  2.06088e+00 -1.09997e+00
       H  2.57580e+00  1.65493e+00  3.82796e-01
       H  1.30317e+00  1.35518e-01 -1.00101e+00
       H  9.63548e-01 -1.44609e+00 -1.25216e+00
       H -3.14152e+00  1.52358e+00 -5.33583e-01
       H -2.09897e+00  2.44744e+00  3.03480e-02
       H -1.00210e-01 -5.85398e-01 -1.94581e-01
       H -1.62725e+00  3.13378e-02  8.85410e-01
       H -8.87565e-01 -1.38103e+00  1.33673e+00
       O -8.93991e-01 -2.80048e+00  2.43557e+00
       H -5.10363e-01 -3.68294e+00  2.46903e+00
       H -1.43699e+00 -2.69853e+00  3.27705e+00
       O  1.19160e+00 -3.16647e+00 -1.71215e+00
       H  6.56998e-01 -3.66044e+00 -2.37100e+00