19
# CELL(abcABC):   78.60000    78.60000    78.60000    90.00000    90.00000    90.00000  Step:           0  Bead:       0 velocities{atomic_unit}  cell{angstrom}
       O -4.06076e-04  6.10809e-05 -1.94684e-04
       O -4.93401e-06  1.23549e-05 -4.56279e-05
       O  1.70566e-05  1.31443e-04  7.43967e-05
       O  3.90479e-04  2.56338e-04 -1.02363e-04
       H -3.26617e-04  8.09225e-04  1.46557e-04
       H -9.16949e-04  9.95716e-05  1.41339e-04
       H -5.05342e-04 -1.25695e-04 -9.02553e-06
       H  1.67910e-04 -2.59878e-04  3.99923e-04
       H -4.44014e-04 -6.35463e-04 -6.17895e-05
       H  2.85810e-04  2.98478e-04  2.13752e-04
       H -9.22632e-06 -8.98682e-04 -1.12082e-03
       H  7.65958e-04  4.40713e-04  2.36042e-04
       H -1.30890e-04 -1.32051e-03 -7.00257e-04
       O  1.43841e-04 -2.13638e-04  1.27385e-04
       H  1.73062e-03  3.06923e-04  9.17596e-04
       H -1.16701e-04  2.78954e-04  1.18014e-04
       O -2.21255e-04 -2.58361e-04  3.20206e-05
       H -4.65577e-05 -2.77817e-04  8.17877e-04
       H  8.29965e-04  1.45535e-03  6.28958e-04
19
# CELL(abcABC):   78.60000    78.60000    78.60000    90.00000    90.00000    90.00000  Step:          10  Bead:       0 velocities{atomic_unit}  cell{angstrom}
       O -3.82171e-04  1.02634e-04 -2.09684e-04
       O -5.04742e-05 -6.73722e-05 -9.55971e-05
       O  7.53332e-05 -2.98491e-05  9.95214e-05
       O  3.61382e-04  2.67696e-04 -1.30614e-04
       H -6.47247e-04  1.27748e-04  4.91753e-04
       H -9.57630e-04  9.20375e-05  8.19343e-05
       H  9.36007e-05  4.42175e-04  3.99203e-04
       H  1.75855e-04 -6.12319e-05  9.98562e-05
       H -2.21324e-05 -3.83183e-04  7.85087e-04
       H  2.52075e-04 -1.73495e-05 -1.93824e-04
       H  1.15611e-04  7.07984e-05 -3.83999e-04
       H -1.67384e-04  4.78737e-04  1.27049e-04
       H -1.44795e-04  6.78223e-04 -1.09668e-03
       O  2.24794e-04 -1.10502e-04  1.60645e-04
       H  3.47326e-04 -1.55320e-03  1.12921e-04
       H -1.37119e-05  4.60009e-04  2.65831e-04
       O -2.40194e-04 -2.12350e-04  1.38696e-04
       H  6.45433e-05 -5.29817e-04 -4.88744e-04
       H  1.08373e-03  9.84644e-04  3.87441e-04
19
# CELL(abcABC):   78.60000    78.60000    78.60000    90.00000    90.00000    90.00000  Step:          20  Bead:       0 velocities{atomic_unit}  cell{angstrom}
       O -3.82319e-04  7.70845e-05 -1.73326e-04
       O  2.22227e-06 -5.87129e-05 -9.95150e-05
       O  8.31970e-05  6.77222e-05  1.06916e-06
       O  3.90315e-04  2.61667e-04 -1.11736e-04
       H -6.56696e-04  5.08460e-04  6.28546e-05
       H -9.34811e-04  4.24355e-05  1.26098e-04
       H -6.64285e-04 -5.24507e-05 -1.68481e-04
       H  9.82283e-06  6.23885e-05 -3.80874e-04
       H -3.66055e-04 -3.76124e-04  3.99520e-04
       H  1.27368e-05  2.79384e-04 -9.41716e-05
       H  3.34040e-04  7.62223e-04  4.33184e-04
       H  2.38873e-04 -3.07673e-04  3.81537e-04
       H -8.47399e-04 -5.29914e-04  1.72052e-04
       O  1.67371e-04 -2.03618e-04  1.37244e-04
       H  1.23091e-03 -1.91017e-04  6.78347e-04
       H -5.04740e-05  4.29109e-04 -1.00182e-04
       O -2.00174e-04 -2.16511e-04  1.40507e-04
       H  2.49240e-04 -5.38448e-04  5.29208e-04
       H  4.81975e-04  1.06035e-03 -3.60365e-04
19
# CELL(abcABC):   78.60000    78.60000    78.60000    90.00000    90.00000    90.00000  Step:          30  Bead:       0 velocities{atomic_unit}  cell{angstrom}
       O -3.69261e-04  8.43584e-05 -1.42777e-04
       O -5.42280e-05 -3.69559e-05 -9.12108e-05
       O  2.60086e-05 -5.15807e-05  4.16491e-05
       O  3.35637e-04  2.89478e-04 -1.22966e-04
       H -7.74962e-04  3.34446e-04  9.37276e-05
       H -8.14924e-04  1.96451e-04 -5.68468e-05
       H  6.57081e-04  2.59183e-04 -7.01327e-04
       H -4.49010e-04  4.38030e-05 -4.70811e-04
       H  3.32237e-05 -4.70001e-04  5.82039e-04
       H  2.40264e-04  1.58661e-04 -9.79468e-05
       H -6.67422e-05 -3.14419e-04  2.66069e-04
       H -8.57157e-05  3.71937e-04 -8.73823e-05
       H  6.37147e-04  7.21259e-04  2.52504e-04
       O  1.74449e-04 -1.91980e-04  1.01389e-04
       H  1.03227e-03 -3.02991e-04  6.71714e-04
       H -7.58845e-05  3.85919e-04  2.65352e-04
       O -1.26913e-04 -2.09656e-04  1.60750e-04
       H -3.39545e-04 -2.47326e-04  1.93337e-04
       H  2.33900e-04  7.09730e-04 -6.64970e-05
19
# CELL(abcABC):   78.60000    78.60000    78.60000    90.00000    90.00000    90.00000  Step:          40  Bead:       0 velocities{atomic_unit}  cell{angstrom}
       O -3.55119e-04  1.09677e-04 -1.36963e-04
       O -3.37901e-05  1.65225e-05 -6.21739e-05
       O  1.32301e-05  2.86297e-05  1.39792e-05
       O  2.92194e-04  2.99131e-04 -1.27673e-04
       H -8.54525e-04  3.87015e-05  1.12214e-04
       H -6.43962e-04  2.65799e-04  3.26114e-05
       H  3.78209e-05 -5.05975e-04 -1.25721e-03
       H -7.87276e-04  8.24818e-05 -3.71564e-04
       H  3.88561e-04 -4.80028e-04  6.10924e-04
       H  4.23247e-04  1.91587e-04 -3.35509e-05
       H -1.45046e-04 -6.95407e-04 -1.00253e-04
       H  4.01576e-04 -5.01151e-06 -1.85235e-04
       H  6.20531e-04 -4.66237e-04  8.72559e-04
       O  1.89460e-04 -9.47190e-05  1.33305e-04
       H  7.47421e-04 -1.45222e-03  5.08758e-04
       H -7.33621e-05  1.60858e-04 -1.41489e-04
       O -7.17075e-05 -1.87311e-04  1.76144e-04
       H -9.13132e-04 -1.44957e-04 -2.18368e-04
       H  2.54197e-04  2.81291e-04  2.24270e-04
19
# CELL(abcABC):   78.60000    78.60000    78.60000    90.00000    90.00000    90.00000  Step:          50  Bead:       0 velocities{atomic_unit}  cell{angstrom}
       O -3.31760e-04  1.00651e-04 -1.12358e-04
       O -1.28621e-04 -7.90838e-05 -1.24714e-04
       O  9.99591e-05 -7.87500e-05  2.34216e-05
       O  3.29123e-04  2.91286e-04 -1.19305e-04
       H -7.14723e-04  5.63946e-04 -1.93141e-04
       H -6.13841e-04  2.10895e-04 -6.12143e-05
       H  2.94818e-04  1.69960e-05 -3.16559e-04
       H -6.55781e-04 -2.42683e-05 -4.03606e-04
       H -8.46215e-05 -4.69415e-04  3.99932e-04
       H  2.04193e-04  3.86635e-04  9.23948e-06
       H -1.09467e-05  5.85045e-04  2.85731e-04
       H -3.12960e-04 -3.52989e-04 -1.07427e-04
       H  2.82679e-04  6.05110e-04  3.81680e-04
       O  1.63417e-04 -2.19609e-04  1.28002e-04
       H  1.18871e-03  1.03454e-03  4.21435e-04
       H -6.60241e-05  2.77785e-06  8.17217e-05
       O -5.17846e-05 -1.52877e-04  1.45843e-04
       H -4.98894e-04 -2.34519e-04  8.91624e-04
       H -2.87781e-04 -1.28155e-04 -4.51123e-04
19
# CELL(abcABC):   78.60000    78.60000    78.60000    90.00000    90.00000    90.00000  Step:          60  Bead:       0 velocities{atomic_unit}  cell{angstrom}
       O -2.99028e-04  1.70837e-04 -1.25159e-04
       O -1.61204e-04 -8.97907e-05 -1.59870e-04
       O  1.15739e-04 -3.06401e-05  7.32631e-06
       O  2.87649e-04  2.54284e-04 -1.27451e-04
       H -7.12753e-04 -1.78157e-04  3.33712e-05
       H -5.34979e-04  1.98455e-04 -1.24669e-04
       H -5.77990e-04 -2.96377e-04  2.82383e-04
       H -1.97298e-04 -8.87593e-05 -2.81975e-06
       H  3.62603e-04  3.10871e-04  7.54084e-04
       H  2.78774e-04  4.09404e-05 -3.00931e-04
       H  2.22203e-04  6.91050e-04  1.34713e-04
       H -1.15834e-04 -6.00281e-04  2.53118e-04
       H  4.59031e-05 -1.01208e-04  1.61813e-04
       O  1.82765e-04 -2.77720e-05  1.50521e-04
       H  9.12785e-04 -1.45458e-03 -9.85792e-05
       H -1.00358e-04 -1.47683e-04  4.31333e-04
       O -9.58701e-05 -8.58391e-05  2.22294e-04
       H -4.90473e-04 -7.32558e-04 -4.26251e-04
       H  4.30427e-04 -6.74791e-04 -5.84252e-04
19
# CELL(abcABC):   78.60000    78.60000    78.60000    90.00000    90.00000    90.00000  Step:          70  Bead:       0 velocities{atomic_unit}  cell{angstrom}
       O -2.88818e-04  1.44877e-04 -1.11989e-04
       O -2.59973e-04 -5.98390e-05 -1.50569e-04
       O  7.80019e-05 -2.28069e-05  6.60439e-05
       O  2.95435e-04  2.20699e-04 -1.17648e-04
       H -5.47774e-04  4.55529e-04 -2.13000e-04
       H -2.92800e-04  3.07085e-04  5.01313e-05
       H  1.29167e-04 -1.06406e-05  2.94084e-04
       H  3.85538e-04 -4.94233e-04  4.16297e-04
       H -2.35836e-04  8.40980e-05  1.23521e-04
       H  4.35312e-04  5.65124e-04  6.08578e-05
       H  1.41882e-04 -6.23568e-04 -7.52425e-04
       H  9.90618e-05  9.44502e-05  2.09065e-04
       H  6.39362e-04 -5.26289e-04 -3.47521e-04
       O  1.69651e-04 -1.18143e-04  2.02412e-04
       H  9.95058e-04  9.98868e-04 -7.44337e-05
       H -1.08231e-05 -7.20105e-04 -2.67062e-04
       O -2.44124e-05 -1.16183e-04  9.89712e-05
       H -6.44048e-04 -4.62855e-04  1.03624e-03
       H -6.16071e-04 -4.38976e-04 -3.32917e-04
19
# CELL(abcABC):   78.60000    78.60000    78.60000    90.00000    90.00000    90.00000  Step:          80  Bead:       0 velocities{atomic_unit}  cell{angstrom}
       O -2.69959e-04  1.72078e-04 -8.21445e-05
       O -1.78349e-04 -6.43779e-05 -2.21025e-04
       O  8.63458e-05 -7.85547e-05  1.14308e-04
       O  2.06796e-04  1.99180e-04 -9.94254e-05
       H -5.37973e-04  2.38575e-05 -1.54906e-04
       H -1.93079e-04  3.90609e-04 -3.38724e-04
       H -7.19720e-04 -7.80190e-05  1.97160e-04
       H  5.35023e-04 -2.88931e-04  7.83613e-04
       H  3.10706e-04  5.55793e-04  2.94194e-05
       H  9.71902e-04  2.56364e-04 -2.07544e-04
       H -3.23440e-04 -7.83659e-04 -6.50672e-04
       H  1.17725e-04  2.61744e-04  3.61637e-04
       H  2.53548e-04  3.97093e-05 -4.82793e-04
       O  1.83834e-04 -3.51888e-05  1.44285e-04
       H  9.80385e-04 -1.23078e-04 -3.71748e-04
       H -2.02625e-04 -6.18722e-04  9.20599e-04
       O -2.79399e-05 -9.64791e-05  1.07704e-04
       H -1.32895e-03 -5.02750e-04  2.89603e-04
       H  1.24941e-04 -6.67196e-04  2.00521e-04
19
# CELL(abcABC):   78.60000    78.60000    78.60000    90.00000    90.00000    90.00000  Step:          90  Bead:       0 velocities{atomic_unit}  cell{angstrom}
       O -2.72233e-04  1.73053e-04 -8.46714e-05
       O -1.56557e-04 -1.54732e-04 -3.12890e-04
       O  1.14933e-04 -6.37118e-05  9.25384e-05
       O  2.30616e-04  1.61009e-04 -8.76935e-05
       H -4.90332e-04 -2.59034e-06 -3.09556e-04
       H  9.07901e-05  4.51106e-04  3.78958e-05
       H -5.15917e-04  6.59433e-04  4.46043e-04
       H  5.61744e-04 -1.89004e-04  2.78978e-04
       H -9.69659e-05  7.37759e-04 -1.87280e-04
       H  7.70532e-04  5.55672e-04 -1.11095e-04
       H -5.49443e-04  3.52042e-04  1.53333e-04
       H  2.15749e-04 -9.42515e-05  4.40058e-04
       H -8.81966e-04 -4.54260e-04  5.02565e-04
       O  1.67229e-04 -1.17768e-05  2.30968e-04
       H  1.02609e-03 -1.95018e-04 -4.77416e-04
       H  5.72010e-05 -7.60766e-04 -5.31832e-04
       O -5.86818e-06 -9.58631e-05  1.09158e-04
       H -9.24048e-04 -4.28968e-04  7.88116e-04
       H -5.03453e-04 -7.57799e-04 -1.95028e-04
19
# CELL(abcABC):   78.60000    78.60000    78.60000    90.00000    90.00000    90.00000  Step:         100  Bead:       0 velocities{atomic_unit}  cell{angstrom}
       O -2.72636e-04  1.66111e-04 -3.16606e-05
       O -1.38986e-04 -1.14423e-04 -2.61892e-04
       O  5.39666e-05 -1.79281e-04  1.56969e-04
       O  2.39477e-04  1.42405e-04 -5.59845e-05
       H -3.86586e-04  2.31327e-04 -5.10964e-04
       H  1.44078e-04  4.76697e-04 -3.86941e-04
       H -8.30841e-04 -1.47305e-05 -4.65444e-04
       H  3.27783e-04  9.68030e-05 -8.98583e-05
       H -2.55461e-04  1.08676e-03 -2.56479e-04
       H  6.20159e-04  4.32566e-04 -3.79182e-04
       H  2.46663e-06  1.01779e-04 -1.97268e-05
       H  7.65001e-05  2.75573e-04  2.61524e-05
       H -2.19522e-04  8.78899e-04  2.77356e-04
       O  2.07445e-04 -8.31144e-05  1.26382e-04
       H  5.29549e-04  1.11729e-03 -6.36606e-05
       H -1.27441e-04 -7.24856e-04  4.57533e-04
       O -1.68045e-05 -9.86119e-05  1.28272e-04
       H -4.58071e-04 -3.40320e-04  9.35146e-04
       H -5.72844e-04 -9.68296e-04 -5.09452e-04
19
# CELL(abcABC):   78.60000    78.60000    78.60000    90.00000    90.00000    90.00000  Step:         110  Bead:       0 velocities{atomic_unit}  cell{angstrom}
       O -2.89875e-04  2.10523e-04 -5.02989e-05
       O -2.26729e-04 -7.82472e-05 -2.12263e-04
       O -1.13363e-05 -5.61115e-05  1.10930e-04
       O  1.81049e-04  1.48523e-04 -3.72033e-05
       H -1.46892e-04 -2.46761e-04 -2.58078e-04
       H  2.66709e-04  5.17780e-04 -2.76813e-04
       H  4.86261e-04  2.20187e-04 -7.58376e-04
       H -6.09549e-05 -4.53012e-05 -3.38822e-04
       H  4.15851e-04  1.05216e-03 -2.38498e-04
       H  8.41503e-04  3.62604e-04 -4.91185e-04
       H  5.44309e-04 -1.08782e-03 -3.03102e-04
       H  6.01083e-04  6.51761e-05 -1.78815e-04
       H  3.37424e-05 -5.96488e-04  1.07851e-03
       O  1.61682e-04  4.51377e-05  1.72742e-04
       H  1.10663e-03 -7.25028e-04 -6.11653e-04
       H -6.37190e-05 -7.41210e-04  8.61897e-05
       O  2.24196e-05 -1.21357e-04  1.50818e-04
       H -1.23703e-03 -2.27045e-04  3.91478e-04
       H -2.03470e-04 -9.04940e-04 -2.39376e-04
19
# CELL(abcABC):   78.60000    78.60000    78.60000    90.00000    90.00000    90.00000  Step:         120  Bead:       0 velocities{atomic_unit}  cell{angstrom}
       O -3.02862e-04  2.02014e-04 -5.61253e-05
       O -1.41934e-04 -5.15999e-05 -2.01645e-04
       O  1.66477e-05 -1.76999e-04  1.57277e-04
       O  1.92750e-04  1.66916e-04 -1.09594e-05
       H  5.09259e-05  2.58620e-04 -5.46201e-04
       H  2.19306e-04  2.95609e-04 -1.86778e-04
       H -3.39039e-04 -5.34216e-04 -5.91265e-04
       H -4.94697e-04 -6.43159e-05 -6.23332e-04
       H -3.19180e-05  5.50550e-04 -6.82022e-04
       H  1.10658e-03  6.92818e-04 -3.26053e-04
       H  5.33371e-04 -5.27423e-04  8.27163e-05
       H -2.64853e-04 -9.08559e-05 -2.27907e-04
       H  3.99952e-04  9.92505e-04  2.44817e-04
       O  2.04179e-04 -7.99898e-05  1.51953e-04
       H  1.76697e-04  1.19078e-03  2.41915e-04
       H  1.33877e-04 -5.33283e-04 -5.77010e-04
       O -2.91019e-07 -2.27586e-04  7.42369e-05
       H -3.91677e-04  5.44235e-04  1.30691e-03
       H -5.98354e-04 -1.20293e-04  6.29440e-05
19
# CELL(abcABC):   78.60000    78.60000    78.60000    90.00000    90.00000    90.00000  Step:         130  Bead:       0 velocities{atomic_unit}  cell{angstrom}
       O -3.00429e-04  2.48808e-04 -7.72457e-05
       O -1.46361e-04 -1.38730e-04 -2.25253e-04
       O  6.43479e-05 -8.38508e-05  5.57391e-05
       O  1.64831e-04  1.98176e-04 -4.23105e-06
       H  2.29111e-04 -1.26112e-04 -2.68566e-04
       H -4.95639e-05  2.13617e-05 -4.75961e-04
       H  2.40155e-04  6.32799e-05  2.19962e-04
       H -4.47456e-04 -5.72728e-05 -6.86600e-04
       H  7.09583e-04  7.31042e-04 -2.61036e-04
       H  8.71706e-04  4.72406e-05 -7.21955e-04
       H -3.68909e-05  6.66013e-04  3.89064e-04
       H -7.38653e-05 -8.94739e-04  1.10582e-04
       H -3.14480e-04 -2.20240e-04  1.20901e-03
       O  1.97680e-04  2.17473e-05  9.49112e-05
       H  7.68431e-04 -1.90088e-04 -3.37666e-04
       H -3.95200e-04 -7.29748e-04  8.99929e-04
       O -2.50555e-05 -1.34288e-04  1.36914e-04
       H -9.32527e-04 -2.80016e-04  3.88501e-04
       H  1.45079e-04 -8.06351e-04 -1.61034e-04
19
# CELL(abcABC):   78.60000    78.60000    78.60000    90.00000    90.00000    90.00000  Step:         140  Bead:       0 velocities{atomic_unit}  cell{angstrom}
       O -3.27160e-04  2.42018e-04 -1.23229e-04
       O -1.01104e-04 -5.79255e-05 -1.28567e-04
       O  5.36441e-05 -1.54979e-04  1.21574e-04
       O  2.11480e-04  1.47450e-04  6.38046e-06
       H  3.38053e-04  2.82808e-05 -3.25040e-04
       H  1.48696e-04 -8.28389e-05  3.32715e-05
       H -3.32795e-04 -6.47071e-04 -2.35475e-04
       H -1.56889e-04 -8.51081e-05  6.76262e-06
       H  1.46597e-04  7.94140e-04 -5.04530e-04
       H  6.97269e-04  6.97828e-04 -5.56474e-04
       H -4.80327e-04  2.17529e-04 -3.79385e-04
       H -3.99021e-04 -3.92558e-04 -9.21991e-05
       H  7.53178e-04  4.60854e-04 -2.12488e-04
       O  1.68542e-04 -4.12448e-05  2.05883e-04
       H  4.27848e-04  2.89270e-04  2.22665e-05
       H  3.18459e-04 -7.44388e-05 -1.14789e-03
       O -7.19434e-05 -1.70267e-04  1.06927e-04
       H  3.11544e-04 -6.50168e-04  6.32579e-04
       H -7.16367e-04 -9.82791e-07 -2.40974e-04
19
# CELL(abcABC):   78.60000    78.60000    78.60000    90.00000    90.00000    90.00000  Step:         150  Bead:       0 velocities{atomic_unit}  cell{angstrom}
       O -3.17000e-04  2.38389e-04 -1.03897e-04
       O -1.53134e-04 -4.21388e-05 -7.66586e-05
       O  3.57536e-05 -4.71157e-05  1.15832e-05
       O  1.85321e-04  1.96729e-04 -1.54886e-06
       H  4.53760e-04  6.44034e-05 -2.80860e-04
       H -1.89397e-04 -1.98365e-04 -4.97274e-04
       H  4.09287e-04  1.57063e-04 -1.40666e-04
       H -8.37002e-05 -3.25451e-04  5.59322e-04
       H  5.10265e-04  5.56957e-04 -2.87391e-04
       H  7.66017e-04 -6.09150e-05 -5.87251e-04
       H -3.35211e-04 -5.83752e-04 -6.25561e-04
       H  1.08186e-04 -3.30478e-04  3.45769e-04
       H  7.91925e-04 -8.66772e-04  1.94895e-04
       O  2.27026e-04 -1.14837e-05  7.76973e-05
       H  1.96597e-04  4.32773e-04  2.70366e-04
       H -3.97346e-04 -6.13094e-04  7.07916e-04
       O -1.35503e-04 -1.77969e-04  9.63193e-05
       H -1.55707e-04 -6.69885e-04  3.33864e-04
       H  4.25967e-04 -4.52466e-05 -4.86193e-05
19
# CELL(abcABC):   78.60000    78.60000    78.60000    90.00000    90.00000    90.00000  Step:         160  Bead:       0 velocities{atomic_unit}  cell{angstrom}
       O -3.23491e-04  2.45942e-04 -1.50183e-04
       O -7.71506e-05 -5.53988e-05 -6.46740e-05
       O  8.02333e-05 -9.90344e-05 -5.42591e-06
       O  1.72969e-04  1.92993e-04 -1.97566e-05
       H  3.17845e-04 -2.51806e-04 -1.24662e-04
       H -4.67758e-05 -2.86199e-04 -1.34432e-04
       H -8.72861e-04  1.27145e-04  7.16449e-06
       H -3.72947e-05 -1.68969e-04  4.59572e-04
       H  4.79803e-04  2.01275e-04 -2.50404e-04
       H  1.00826e-03  1.33657e-04 -2.68417e-04
       H  6.67503e-05  9.30774e-05  1.23907e-04
       H -3.02463e-04 -1.42293e-04  7.96386e-04
       H  3.53712e-04 -1.50406e-04 -6.86505e-04
       O  1.73009e-04  6.24706e-06  1.68866e-04
       H  6.98514e-04 -5.53367e-04 -2.29350e-05
       H  6.49201e-05  8.07159e-05 -4.62671e-04
       O -1.54046e-04 -2.42668e-04  7.56204e-05
       H -2.92232e-04 -5.79483e-04  2.26076e-04
       H  6.01185e-04  7.33430e-04  2.66338e-04
19
# CELL(abcABC):   78.60000    78.60000    78.60000    90.00000    90.00000    90.00000  Step:         170  Bead:       0 velocities{atomic_unit}  cell{angstrom}
       O -3.23709e-04  2.22034e-04 -1.36718e-04
       O -1.18691e-04 -1.12166e-04 -2.80214e-05
       O  8.97013e-05 -8.90720e-05 -5.35344e-05
       O  2.05840e-04  1.69654e-04  1.94099e-06
       H  3.57907e-04 -3.05213e-05 -3.97887e-04
       H -1.92725e-04 -3.56817e-04 -1.92142e-04
       H -2.30818e-04  7.31731e-04  3.91318e-05
       H  2.86783e-04 -4.90870e-06 -8.24104e-06
       H  1.90419e-04  3.44710e-04 -3.90785e-04
       H  8.07185e-04  1.33323e-04 -3.20821e-04
       H -8.95837e-05  7.39460e-04  3.65331e-04
       H  2.30636e-05 -2.51436e-05  7.45483e-04
       H -1.87905e-04 -3.58149e-04 -2.47617e-04
       O  2.42467e-04 -6.85154e-05  9.86753e-05
       H -1.44278e-04  3.51296e-04  7.33491e-04
       H -4.13617e-05  2.49082e-04 -1.97472e-04
       O -1.89376e-04 -2.35695e-04  9.22819e-05
       H  6.48827e-04 -7.08869e-04  1.75601e-04
       H  6.08916e-05  7.40571e-04  9.87265e-05
19
# CELL(abcABC):   78.60000    78.60000    78.60000    90.00000    90.00000    90.00000  Step:         180  Bead:       0 velocities{atomic_unit}  cell{angstrom}
       O -3.05899e-04  2.25038e-04 -1.41908e-04
       O -8.47080e-05 -9.25220e-06  6.99891e-05
       O  4.52998e-05 -8.87521e-05 -1.98753e-05
       O  2.12459e-04  1.64611e-04 -1.68562e-06
       H  1.40615e-04 -3.43164e-04 -1.63021e-04
       H -4.18639e-04 -2.68597e-04 -4.30056e-04
       H -3.41202e-04 -1.88391e-04 -8.73976e-04
       H  4.21295e-05  2.14728e-04 -7.07092e-05
       H  6.29495e-04  5.15002e-04  4.94616e-05
       H  3.14766e-04 -1.31869e-04 -4.87394e-04
       H -3.51839e-04 -2.33530e-04 -1.62400e-04
       H  5.02774e-04  4.11768e-04  1.97212e-05
       H  9.12054e-06 -3.93241e-04 -2.08399e-04
       O  2.55891e-04 -4.94627e-06  4.71781e-05
       H  4.59710e-04 -6.96309e-04  3.77692e-04
       H -7.38980e-04  2.25085e-04  8.37337e-04
       O -1.93938e-04 -1.51047e-04  1.61213e-04
       H  3.20115e-04 -1.41126e-03 -4.54052e-04
       H  5.57275e-04  1.46524e-04 -2.58220e-04
19
# CELL(abcABC):   78.60000    78.60000    78.60000    90.00000    90.00000    90.00000  Step:         190  Bead:       0 velocities{atomic_unit}  cell{angstrom}
       O -3.34055e-04  2.07718e-04 -1.80070e-04
       O -1.12819e-04  8.24439e-06  6.66441e-05
       O  4.93569e-05 -1.23290e-04 -2.06987e-06
       O  2.38770e-04  1.37488e-04  1.56248e-05
       H  2.24162e-04 -1.37579e-04 -2.42884e-04
       H -9.86591e-05 -2.66302e-04  6.88002e-05
       H  3.50337e-04  2.74302e-04 -5.95610e-04
       H -5.14148e-04 -9.97623e-05 -2.85245e-04
       H  3.80956e-05  1.96901e-04 -2.56866e-04
       H  6.11224e-04  4.85224e-04 -2.11995e-04
       H -2.21439e-04 -7.31506e-04  1.08454e-04
       H  2.54529e-04  6.71071e-04 -4.48037e-04
       H -8.38841e-05  1.29851e-04 -2.93823e-04
       O  2.19161e-04 -7.87499e-05  1.23980e-04
       H -9.57744e-05 -2.18069e-04  9.03210e-04
       H  5.00816e-04  9.26125e-04 -1.09189e-03
       O -1.45568e-04 -2.64893e-04  1.08308e-04
       H  8.40075e-04 -2.33785e-04  1.54225e-04
       H -4.53655e-04  8.04882e-04  8.97484e-05
19
# CELL(abcABC):   78.60000    78.60000    78.60000    90.00000    90.00000    90.00000  Step:         200  Bead:       0 velocities{atomic_unit}  cell{angstrom}
       O -2.90449e-04  1.92210e-04 -1.71417e-04
       O -7.94355e-05  5.70217e-07  2.01174e-05
       O  4.75546e-05 -5.30959e-05 -6.68150e-05
       O  2.53083e-04  2.06313e-04 -5.08179e-06
       H  9.56610e-05 -1.29571e-04 -1.11679e-04
       H -6.61149e-04 -8.45090e-05 -5.00476e-04
       H -4.17016e-04 -3.55864e-04  1.89837e-04
       H -8.02076e-04  1.63036e-05 -5.92193e-04
       H  3.63614e-04 -2.51774e-04  2.23523e-04
       H  2.77613e-04 -3.18587e-04 -6.91097e-05
       H  2.84273e-04  1.57762e-04  7.58854e-04
       H  5.24786e-04 -1.28893e-04 -4.60655e-04
       H -8.24700e-04 -3.24548e-04  4.27841e-04
       O  3.08412e-04 -4.25613e-05 -1.48969e-05
       H -4.28556e-05 -3.57057e-04  8.98315e-04
       H -9.45447e-04  5.52691e-04  9.73498e-04
       O -1.32619e-04 -2.40910e-04  1.36260e-04
       H -2.89395e-04 -4.54683e-04 -2.45784e-04
       H  7.45440e-04  6.86235e-04  1.24468e-04
19
# CELL(abcABC):   78.60000    78.60000    78.60000    90.00000    90.00000    90.00000  Step:         210  Bead:       0 velocities{atomic_unit}  cell{angstrom}
       O -2.93549e-04  1.84533e-04 -2.16561e-04
       O -1.57425e-04 -4.37693e-05  1.61185e-05
       O  2.92826e-05 -1.19207e-04  6.33117e-06
       O  2.83097e-04  1.33739e-04  2.87781e-05
       H -8.06121e-05 -3.80304e-05 -1.42677e-04
       H -3.48217e-04 -1.01922e-04  1.45430e-04
       H  4.48498e-04 -1.28545e-04  3.06508e-04
       H -4.85554e-04  1.57343e-04 -6.14709e-04
       H  1.16153e-04 -1.41071e-04  3.99352e-05
       H  2.91037e-04  5.02035e-04 -1.37539e-04
       H  3.56505e-04  2.09837e-04  5.75816e-04
       H -1.82879e-04  1.06623e-04 -6.85994e-04
       H -1.57181e-04  6.10404e-04 -4.69204e-04
       O  1.95664e-04 -3.65822e-05  1.05643e-04
       H  5.04183e-06 -4.53173e-04  8.63928e-04
       H  6.02376e-04  8.18956e-04 -9.73065e-04
       O -8.16691e-05 -2.39164e-04  1.31551e-04
       H  3.00956e-04 -4.78896e-05 -1.22295e-04
       H -4.75644e-04  4.17391e-04  7.31917e-05
19
# CELL(abcABC):   78.60000    78.60000    78.60000    90.00000    90.00000    90.00000  Step:         220  Bead:       0 velocities{atomic_unit}  cell{angstrom}
       O -2.70164e-04  1.40017e-04 -1.91209e-04
       O -1.16432e-04  2.01547e-05  3.89513e-05
       O -3.35182e-05  6.00905e-05 -2.58673e-05
       O  3.22874e-04  1.14927e-04  5.17733e-05
       H -1.24271e-04  7.69489e-05 -1.99331e-04
       H -5.26875e-04  3.15438e-04 -1.40143e-04
       H -1.91743e-07 -7.70108e-04 -3.50213e-04
       H -2.09570e-04  1.15641e-04 -1.34557e-04
       H  2.20108e-04  7.37199e-05  1.05705e-04
       H -2.07486e-04  2.18183e-04 -3.06567e-04
       H -6.39236e-05 -6.80888e-04 -2.26938e-04
       H  3.38471e-04 -3.67518e-04 -4.41668e-04
       H  2.79240e-05 -1.10032e-03  1.66915e-04
       O  2.32519e-04 -3.97113e-05  4.87569e-05
       H -1.47018e-04  8.27583e-05  6.89972e-04
       H -1.28097e-04  5.74753e-04  1.49660e-04
       O -1.09318e-04 -1.80146e-04  1.55237e-04
       H  4.68556e-04 -1.32361e-04 -2.92003e-04
       H -5.97357e-05 -2.36967e-04 -2.53278e-04
19
# CELL(abcABC):   78.60000    78.60000    78.60000    90.00000    90.00000    90.00000  Step:         230  Bead:       0 velocities{atomic_unit}  cell{angstrom}
       O -2.52024e-04  1.02728e-04 -1.97871e-04
       O -1.02262e-04 -4.36391e-05 -2.57874e-05
       O -2.39866e-05 -5.65415e-05  4.33332e-05
       O  3.17305e-04  1.08877e-04  3.46324e-05
       H -2.42659e-04  1.21814e-04 -1.02676e-04
       H -4.13420e-04  6.80846e-04 -6.57155e-05
       H  2.00221e-04  1.48584e-04 -1.82714e-04
       H -1.94017e-04 -1.72714e-04  1.59203e-04
       H  2.99645e-04 -1.27481e-04  2.88637e-04
       H -6.71124e-05  1.05371e-04 -7.13437e-05
       H -5.61642e-04 -2.12769e-04 -1.34593e-04
       H -4.76478e-04 -1.14266e-04 -1.00051e-04
       H  5.32856e-04  4.86875e-04 -8.66292e-04
       O  1.98226e-04  1.20441e-06  4.89491e-05
       H  1.03919e-04 -2.00330e-04  4.49297e-04
       H -1.61007e-04  5.22508e-04  3.80259e-04
       O -7.27965e-05 -1.65996e-04  1.30153e-04
       H -2.01258e-04 -1.58780e-04 -3.40450e-04
       H  1.57726e-04 -2.32534e-04  5.61106e-05
19
# CELL(abcABC):   78.60000    78.60000    78.60000    90.00000    90.00000    90.00000  Step:         240  Bead:       0 velocities{atomic_unit}  cell{angstrom}
       O -2.30893e-04  7.35235e-05 -2.11993e-04
       O -4.72545e-05 -9.76420e-05 -1.04444e-04
       O -2.71490e-05  4.50279e-05 -4.37155e-05
       O  3.14536e-04  7.16330e-05  2.96060e-05
       H -3.82259e-04  2.42967e-04 -2.42800e-04
       H -3.35373e-04  8.57699e-04  3.05859e-04
       H -7.49119e-04  2.61864e-04  1.48294e-04
       H  4.88287e-05 -2.27116e-04  2.89548e-04
       H -4.43414e-05 -3.61186e-04  1.66051e-04
       H  3.54399e-04  4.19189e-04  2.38317e-04
       H -3.26401e-04  9.61099e-04  1.82185e-04
       H -2.40332e-04 -3.97422e-04  6.90067e-04
       H -1.67391e-04 -9.91534e-04  2.50425e-04
       O  1.15009e-04  2.62084e-05  1.18756e-04
       H  2.93778e-05  8.06853e-05  2.81505e-04
       H  9.63611e-04  9.77635e-05 -6.09099e-04
       O -2.25356e-05 -2.06179e-04  4.21805e-05
       H -3.20606e-04  5.22865e-04  3.86338e-04
       H -4.44912e-04 -7.90943e-05  6.05591e-04
19
# CELL(abcABC):   78.60000    78.60000    78.60000    90.00000    90.00000    90.00000  Step:         250  Bead:       0 velocities{atomic_unit}  cell{angstrom}
       O -1.77551e-04  6.42078e-05 -1.64262e-04
       O -9.36492e-05 -1.07595e-04 -1.27672e-04
       O -1.11504e-04 -6.27779e-05  5.18763e-05
       O  3.07171e-04  6.25126e-05  2.10289e-05
       H -5.87319e-04  2.47914e-04 -3.56930e-04
       H -7.84474e-04  9.65398e-04 -2.98990e-04
       H -2.22616e-04  3.74465e-04 -1.29385e-04
       H  6.24080e-04 -2.59105e-04  4.86397e-04
       H  3.52846e-04  6.62332e-05  4.20227e-04
       H -2.00631e-05 -3.32012e-04  2.12997e-04
       H  2.33677e-05  5.30974e-04 -2.35881e-04
       H -2.31165e-04  8.86149e-05  8.75348e-04
       H  6.14685e-04  6.68426e-04 -5.09362e-04
       O  1.77344e-04  3.73162e-05  6.38851e-06
       H  2.08702e-04  4.46401e-05 -5.90523e-05
       H -5.27657e-04  3.06947e-04  1.40612e-03
       O -6.82624e-05 -1.13745e-04  1.03584e-04
       H -6.01293e-04 -9.86316e-05 -2.97799e-04
       H  6.18386e-04 -6.97764e-04  2.17401e-04
19
# CELL(abcABC):   78.60000    78.60000    78.60000    90.00000    90.00000    90.00000  Step:         260  Bead:       0 velocities{atomic_unit}  cell{angstrom}
       O -1.85364e-04  5.65519e-05 -2.01639e-04
       O -8.22897e-05 -7.01543e-05 -1.27960e-04
       O -1.11774e-04  4.25557e-05  2.91692e-05
       O  3.17489e-04 -3.28237e-05  4.49177e-05
       H -6.42029e-04  2.89122e-04 -3.84336e-04
       H -4.83672e-04  1.04009e-03  2.75283e-04
       H -1.89482e-04 -1.01565e-04 -4.67868e-04
       H  5.97959e-04 -4.14787e-06  7.97985e-04
       H -5.17439e-05  3.79180e-04  1.19312e-04
       H  8.06928e-05  5.09752e-04  2.56618e-04
       H  8.51589e-05 -6.03017e-04 -7.83501e-04
       H -1.57897e-04  3.77776e-04  8.78083e-04
       H  3.85876e-04 -7.15185e-04  4.51226e-04
       O  4.70143e-05  8.24213e-05  1.41883e-04
       H  1.90031e-04  1.38474e-04 -2.09107e-04
       H  1.35040e-03 -2.74639e-04 -7.08665e-04
       O -1.86523e-05 -9.88363e-05  8.43937e-05
       H  3.45477e-04  3.08235e-04  1.41666e-04
       H -9.77798e-04 -1.02208e-03  9.73732e-05
19
# CELL(abcABC):   78.60000    78.60000    78.60000    90.00000    90.00000    90.00000  Step:         270  Bead:       0 velocities{atomic_unit}  cell{angstrom}
       O -1.62958e-04  5.77965e-05 -1.80824e-04
       O -6.02973e-05 -9.62218e-05 -1.59752e-04
       O -9.01878e-05 -4.73951e-05  5.40215e-05
       O  2.85610e-04  1.68830e-05  2.29580e-05
       H -6.40436e-04  3.10290e-04 -2.19248e-04
       H -7.48795e-04  9.58124e-04 -4.45029e-04
       H -2.33100e-04  2.00232e-04  5.32433e-05
       H  2.33472e-04 -2.44841e-04  4.86024e-04
       H  2.79662e-04  2.32828e-04  3.67234e-04
       H  7.04881e-05 -2.94594e-04  4.83153e-04
       H -1.43566e-04 -2.28418e-04 -5.56773e-04
       H  3.95100e-04 -1.72316e-04  6.17651e-04
       H -2.12753e-04  1.00359e-03  4.54038e-04
       O  1.07998e-04  8.33879e-05  3.57625e-05
       H  3.26039e-04  1.14418e-05 -4.30666e-04
       H  1.29350e-04 -3.51037e-05  1.07828e-03