Generated by MOKIT
SP        RHF                                                         MYBAS
Number of atoms                            I                3
Charge                                     I                0
Multiplicity                               I                1
Number of electrons                        I               10
Number of alpha electrons                  I                5
Number of beta electrons                   I                5
Number of basis functions                  I               43
Number of independent functions            I               43
Atomic numbers                             I   N=           3
           8           1           1
Nuclear charges                            R   N=           3
  8.00000000E+00  1.00000000E+00  1.00000000E+00
Current cartesian coordinates              R   N=           9
  0.00000000E+00  2.16717571E-01  0.00000000E+00  1.42497822E+00 -8.66866506E-01
  0.00000000E+00 -1.42497822E+00 -8.66866506E-01  0.00000000E+00
Int Atom Types                             I   N=           3
           0           0           0
Real atomic weights                        R   N=           3
  1.59949146E+01  1.00782504E+00  1.00782504E+00
Number of contracted shells                I               19
Number of primitive shells                 I               32
Highest angular momentum                   I                3
Largest degree of contraction              I                6
Shell types                                I   N=          19
           0           0           0           0           0           1
           1           1          -2          -2          -3           0
           0           0           1           0           0           0
           1
Number of primitives per shell             I   N=          19
           6           2           1           1           1           4
           1           1           1           1           1           3
           1           1           1           3           1           1
           1
Shell to atom map                          I   N=          19
           1           1           1           1           1           1
           1           1           1           1           1           2
           2           2           2           3           3           3
           3
Primitive exponents                        R   N=          32
  2.70323826E+04  4.05238714E+03  9.22327227E+02  2.61240710E+02  8.53546414E+01
  3.10350352E+01  1.22608607E+01  4.99870760E+00  1.17031082E+00  4.64747410E-01
  1.85045364E-01  6.32749548E+01  1.46270494E+01  4.45012235E+00  1.52757996E+00
  5.29351179E-01  1.74784213E-01  2.31400000E+00  6.45000000E-01  1.42800000E+00
  3.40613410E+01  5.12357460E+00  1.16466260E+00  3.27230410E-01  1.03072410E-01
  8.00000000E-01  3.40613410E+01  5.12357460E+00  1.16466260E+00  3.27230410E-01
  1.03072410E-01  8.00000000E-01
Contraction coefficients                   R   N=          32
  5.72273287E-04  4.43532330E-03  2.30201076E-02  9.28224907E-02  2.93785000E-01
  6.74016045E-01  6.38399370E-01  3.95345871E-01  1.00000000E+00  1.00000000E+00
  1.00000000E+00  1.20183321E-02  8.30054217E-02  3.19917439E-01  7.07155429E-01
  1.00000000E+00  1.00000000E+00  1.00000000E+00  1.00000000E+00  1.00000000E+00
  2.54393072E-02  1.90085949E-01  8.52441130E-01  1.00000000E+00  1.00000000E+00
  1.00000000E+00  2.54393072E-02  1.90085949E-01  8.52441130E-01  1.00000000E+00
  1.00000000E+00  1.00000000E+00
Coordinates of each shell                  R   N=          57
  0.00000000E+00  2.16717571E-01  0.00000000E+00  0.00000000E+00  2.16717571E-01
  0.00000000E+00  0.00000000E+00  2.16717571E-01  0.00000000E+00  0.00000000E+00
  2.16717571E-01  0.00000000E+00  0.00000000E+00  2.16717571E-01  0.00000000E+00
  0.00000000E+00  2.16717571E-01  0.00000000E+00  0.00000000E+00  2.16717571E-01
  0.00000000E+00  0.00000000E+00  2.16717571E-01  0.00000000E+00  0.00000000E+00
  2.16717571E-01  0.00000000E+00  0.00000000E+00  2.16717571E-01  0.00000000E+00
  0.00000000E+00  2.16717571E-01  0.00000000E+00  1.42497822E+00 -8.66866506E-01
  0.00000000E+00  1.42497822E+00 -8.66866506E-01  0.00000000E+00  1.42497822E+00
 -8.66866506E-01  0.00000000E+00  1.42497822E+00 -8.66866506E-01  0.00000000E+00
 -1.42497822E+00 -8.66866506E-01  0.00000000E+00 -1.42497822E+00 -8.66866506E-01
  0.00000000E+00 -1.42497822E+00 -8.66866506E-01  0.00000000E+00 -1.42497822E+00
 -8.66866506E-01  0.00000000E+00
Num ILSW                                   I              100
ILSW                                       I   N=         100
           0           0           0           0           2           0
           0           0           0           0           0          -1
           5           0           0           0           0           0
           0           0           0           0           0           0
           1           1           0           0           0           0
           0           0      100000           0          -1           0
           0           0           0           0           0           0
           0           0           0           1           0           0
           0 -2000000000           1           0           0           0
           0           0           4          52           0           0
           0           0           0           0           0           0
           0           0           0           3           0           1
           0           0           0           0           0           0
           0           0           0           0           0           0
           0           0           0           0           0           0
           0           0           0           0           0           0
           0           0           0           0
Virial Ratio                               R      0.200000000000000E+01
Total Energy                               R      0.000000000000000E+00
Alpha Orbital Energies                     R   N=          43
 -2.05569886E+01 -1.35411120E+00 -7.22109500E-01 -5.81093700E-01 -5.08439100E-01
  1.28874200E-01  1.98215600E-01  5.28057300E-01  5.65493400E-01  5.97195200E-01
  6.45040400E-01  7.69357500E-01  7.78127900E-01  1.42116170E+00  1.44236040E+00
  1.55733080E+00  1.76110820E+00  1.88993590E+00  2.03902740E+00  2.26264600E+00
  2.35674350E+00  2.40886600E+00  2.56863740E+00  2.71135510E+00  3.00722350E+00
  3.01663340E+00  3.02990730E+00  3.15551230E+00  4.02197200E+00  4.35861400E+00
  5.55065010E+00  5.65595340E+00  5.85062380E+00  5.87513720E+00  5.94621160E+00
  6.59233260E+00  6.76929230E+00  6.83011690E+00  6.89753420E+00  6.94142780E+00
  7.45524840E+00  7.49458800E+00  4.48257416E+01
Alpha MO coefficients                      R   N=        1849
 -4.35618200E-01 -6.42384900E-01 -2.18996000E-02  8.72060000E-03 -3.73070000E-03
  0.00000000E+00  1.75490000E-03  0.00000000E+00  0.00000000E+00 -1.58960000E-03
  0.00000000E+00  0.00000000E+00  6.18900000E-04  0.00000000E+00  2.00000000E-05
  0.00000000E+00  0.00000000E+00  1.38000000E-05  0.00000000E+00 -3.54400000E-04
  0.00000000E+00  0.00000000E+00  9.80000000E-05  0.00000000E+00  0.00000000E+00
  0.00000000E+00  2.84000000E-05  0.00000000E+00  0.00000000E+00  0.00000000E+00
 -2.53000000E-05 -4.29900000E-04 -5.92000000E-04  7.46800000E-04  2.99500000E-04
 -1.43800000E-04  0.00000000E+00 -4.29900000E-04 -5.92000000E-04  7.46800000E-04
 -2.99500000E-04 -1.43800000E-04  0.00000000E+00 -9.58925000E-02 -2.32215800E-01
  3.27182800E-01  4.62880900E-01  1.56081900E-01  0.00000000E+00 -6.11569000E-02
  0.00000000E+00  0.00000000E+00 -6.16402000E-02  0.00000000E+00  0.00000000E+00
 -6.58960000E-03  0.00000000E+00 -4.14750000E-03  0.00000000E+00  0.00000000E+00
  1.33310000E-03  0.00000000E+00 -1.05419000E-02  0.00000000E+00  0.00000000E+00
  2.01620000E-03  0.00000000E+00  0.00000000E+00  0.00000000E+00  3.13240000E-03
  0.00000000E+00  0.00000000E+00  0.00000000E+00 -5.24720000E-03  8.91849000E-02
  6.58824000E-02  4.20270000E-03 -1.44354000E-02  8.60720000E-03  0.00000000E+00
  8.91849000E-02  6.58824000E-02  4.20270000E-03  1.44354000E-02  8.60720000E-03
  0.00000000E+00  0.00000000E+00  0.00000000E+00  0.00000000E+00  0.00000000E+00
  0.00000000E+00  3.68841200E-01  0.00000000E+00  0.00000000E+00  3.21187700E-01
  0.00000000E+00  0.00000000E+00  1.21293700E-01  0.00000000E+00  0.00000000E+00
  0.00000000E+00  0.00000000E+00  0.00000000E+00  0.00000000E+00 -1.39756000E-02
  0.00000000E+00  0.00000000E+00  0.00000000E+00  0.00000000E+00 -3.35427000E-02
  0.00000000E+00 -6.06240000E-03  0.00000000E+00  0.00000000E+00  0.00000000E+00
 -2.27400000E-04  0.00000000E+00  1.41940700E-01  1.84586500E-01  4.97808000E-02
 -1.04957000E-02  1.78768000E-02  0.00000000E+00 -1.41940700E-01 -1.84586500E-01
 -4.97808000E-02 -1.04957000E-02 -1.78768000E-02  0.00000000E+00 -3.17150000E-02
 -7.82179000E-02  1.23907200E-01  1.85223700E-01  1.92852800E-01  0.00000000E+00
  4.08379400E-01  0.00000000E+00  0.00000000E+00  3.55078300E-01  0.00000000E+00
  0.00000000E+00  2.26979600E-01  0.00000000E+00  5.61190000E-03  0.00000000E+00
  0.00000000E+00  2.04420000E-03  0.00000000E+00  1.70590000E-02  0.00000000E+00
  0.00000000E+00  2.02008000E-02  0.00000000E+00  0.00000000E+00  0.00000000E+00
 -4.06560000E-03  0.00000000E+00  0.00000000E+00  0.00000000E+00  2.37010000E-03
 -8.48612000E-02 -1.21238600E-01 -3.15110000E-02  1.75254000E-02  7.68190000E-03
  0.00000000E+00 -8.48612000E-02 -1.21238600E-01 -3.15110000E-02 -1.75254000E-02
  7.68190000E-03  0.00000000E+00  0.00000000E+00  0.00000000E+00  0.00000000E+00
  0.00000000E+00  0.00000000E+00  0.00000000E+00  0.00000000E+00 -4.63458000E-01
  0.00000000E+00  0.00000000E+00 -4.15349700E-01  0.00000000E+00  0.00000000E+00
 -3.13121400E-01  0.00000000E+00  0.00000000E+00  4.32680000E-03  0.00000000E+00
  0.00000000E+00  0.00000000E+00  0.00000000E+00  2.55954000E-02  0.00000000E+00
  0.00000000E+00  5.57930000E-03  0.00000000E+00  0.00000000E+00 -1.71220000E-03
  0.00000000E+00  0.00000000E+00  0.00000000E+00  0.00000000E+00  0.00000000E+00
  0.00000000E+00  0.00000000E+00  0.00000000E+00 -2.40955000E-02  0.00000000E+00
  0.00000000E+00  0.00000000E+00  0.00000000E+00  0.00000000E+00 -2.40955000E-02
 -2.62805000E-02 -7.10462000E-02  1.95809800E-01 -2.45411900E-01  1.41653950E+00
  0.00000000E+00 -1.15150000E-01  0.00000000E+00  0.00000000E+00 -4.69172000E-02
  0.00000000E+00  0.00000000E+00 -3.60835400E-01  0.00000000E+00  2.30100000E-04
  0.00000000E+00  0.00000000E+00 -1.32900000E-03  0.00000000E+00  6.55790000E-03
  0.00000000E+00  0.00000000E+00 -1.06746000E-02  0.00000000E+00  0.00000000E+00
  0.00000000E+00  3.24900000E-04  0.00000000E+00  0.00000000E+00  0.00000000E+00
  7.55400000E-04 -2.20063000E-02  2.52061000E-02 -1.07281530E+00 -3.07422000E-02
  2.17437000E-02  0.00000000E+00 -2.20063000E-02  2.52061000E-02 -1.07281530E+00
  3.07422000E-02  2.17437000E-02  0.00000000E+00  0.00000000E+00  0.00000000E+00
  0.00000000E+00  0.00000000E+00  0.00000000E+00 -1.85850200E-01  0.00000000E+00
  0.00000000E+00  9.62250000E-03  0.00000000E+00  0.00000000E+00 -7.45441800E-01
  0.00000000E+00  0.00000000E+00  0.00000000E+00  0.00000000E+00  0.00000000E+00
  0.00000000E+00  1.32690000E-03  0.00000000E+00  0.00000000E+00  0.00000000E+00
  0.00000000E+00 -3.91134000E-02  0.00000000E+00 -1.74720000E-03  0.00000000E+00
  0.00000000E+00  0.00000000E+00 -3.42780000E-03  0.00000000E+00  1.27688000E-02
 -1.72707900E-01  1.88317360E+00  4.43455000E-02 -3.70993000E-02  0.00000000E+00
 -1.27688000E-02  1.72707900E-01 -1.88317360E+00  4.43455000E-02  3.70993000E-02
  0.00000000E+00  0.00000000E+00  0.00000000E+00  0.00000000E+00  0.00000000E+00
  0.00000000E+00  8.23764000E-02  0.00000000E+00  0.00000000E+00  3.46839300E-01
  0.00000000E+00  0.00000000E+00  1.60559780E+00  0.00000000E+00  0.00000000E+00
  0.00000000E+00  0.00000000E+00  0.00000000E+00  0.00000000E+00  3.65901000E-02
  0.00000000E+00  0.00000000E+00  0.00000000E+00  0.00000000E+00 -1.86328600E-01
  0.00000000E+00 -1.66916000E-02  0.00000000E+00  0.00000000E+00  0.00000000E+00
 -4.89240000E-03  0.00000000E+00 -9.44503000E-02 -1.57753970E+00  1.39867600E-01
  1.12297000E-01 -6.91556000E-02  0.00000000E+00  9.44503000E-02  1.57753970E+00
 -1.39867600E-01  1.12297000E-01  6.91556000E-02  0.00000000E+00 -3.00155000E-02
 -6.57081000E-02 -5.65656000E-02  8.25003900E-01  8.09584500E-01  0.00000000E+00
  1.14693900E-01  0.00000000E+00  0.00000000E+00  1.88936400E-01  0.00000000E+00
  0.00000000E+00 -1.66190880E+00  0.00000000E+00  1.95445000E-02  0.00000000E+00
  0.00000000E+00 -2.44390000E-03  0.00000000E+00 -9.01523000E-02  0.00000000E+00
  0.00000000E+00  8.66840000E-03  0.00000000E+00  0.00000000E+00  0.00000000E+00
  8.19280000E-03  0.00000000E+00  0.00000000E+00  0.00000000E+00 -1.54345000E-02
 -4.60587000E-02 -1.38667210E+00  1.78912600E-01  8.94964000E-02 -5.92971000E-02
  0.00000000E+00 -4.60587000E-02 -1.38667210E+00  1.78912600E-01 -8.94964000E-02
 -5.92971000E-02  0.00000000E+00  0.00000000E+00  0.00000000E+00  0.00000000E+00
  0.00000000E+00  0.00000000E+00  0.00000000E+00  0.00000000E+00 -2.71574300E-01
  0.00000000E+00  0.00000000E+00 -7.42992200E-01  0.00000000E+00  0.00000000E+00
  1.26521140E+00  0.00000000E+00  0.00000000E+00  6.77250000E-03  0.00000000E+00
  0.00000000E+00  0.00000000E+00  0.00000000E+00 -8.34440000E-03  0.00000000E+00
  0.00000000E+00  9.78100000E-04  0.00000000E+00  0.00000000E+00 -4.07300000E-04
  0.00000000E+00  0.00000000E+00  0.00000000E+00  0.00000000E+00  0.00000000E+00
  0.00000000E+00  0.00000000E+00  0.00000000E+00 -1.50024000E-02  0.00000000E+00
  0.00000000E+00  0.00000000E+00  0.00000000E+00  0.00000000E+00 -1.50024000E-02
  1.30219000E-02  3.06701000E-02  3.03763000E-02 -3.71373700E-01 -8.85706300E-01
  0.00000000E+00  2.70665200E-01  0.00000000E+00  0.00000000E+00  8.48174600E-01
  0.00000000E+00  0.00000000E+00 -2.11807300E-01  0.00000000E+00 -1.16496000E-02
  0.00000000E+00  0.00000000E+00  1.20621000E-02  0.00000000E+00  5.82028000E-02
  0.00000000E+00  0.00000000E+00 -1.37487000E-02  0.00000000E+00  0.00000000E+00
  0.00000000E+00 -9.13360000E-03  0.00000000E+00  0.00000000E+00  0.00000000E+00
  1.81741000E-02  6.77810000E-02  1.37325390E+00 -4.87171900E-01 -5.37095000E-02
  7.39978000E-02  0.00000000E+00  6.77810000E-02  1.37325390E+00 -4.87171900E-01
  5.37095000E-02  7.39978000E-02  0.00000000E+00 -5.12611000E-02 -1.05413600E-01
 -1.64749300E-01  2.40888720E+00 -4.85798890E+00  0.00000000E+00 -8.20749000E-02
  0.00000000E+00  0.00000000E+00 -5.54227000E-02  0.00000000E+00  0.00000000E+00
  1.22601610E+00  0.00000000E+00 -1.58090000E-02  0.00000000E+00  0.00000000E+00
  4.74440000E-03  0.00000000E+00  6.15703000E-02  0.00000000E+00  0.00000000E+00
 -1.10748000E-02  0.00000000E+00  0.00000000E+00  0.00000000E+00 -4.95200000E-03
  0.00000000E+00  0.00000000E+00  0.00000000E+00  1.05287000E-02 -2.23932000E-02
  8.01195100E-01  9.89550800E-01 -6.24685000E-02  5.60620000E-02  0.00000000E+00
 -2.23932000E-02  8.01195100E-01  9.89550800E-01  6.24685000E-02  5.60620000E-02
  0.00000000E+00  0.00000000E+00  0.00000000E+00  0.00000000E+00  0.00000000E+00
  0.00000000E+00 -3.32447000E-01  0.00000000E+00  0.00000000E+00 -9.32923200E-01
  0.00000000E+00  0.00000000E+00  1.81818260E+00  0.00000000E+00  0.00000000E+00
  0.00000000E+00  0.00000000E+00  0.00000000E+00  0.00000000E+00  5.54730000E-03
  0.00000000E+00  0.00000000E+00  0.00000000E+00  0.00000000E+00 -1.56583000E-02
  0.00000000E+00  3.38670000E-03  0.00000000E+00  0.00000000E+00  0.00000000E+00
  2.74800000E-04  0.00000000E+00  5.11131000E-02  3.93624200E-01 -1.56489900E+00
 -1.44080000E-03 -1.82512000E-02  0.00000000E+00 -5.11131000E-02 -3.93624200E-01
  1.56489900E+00 -1.44080000E-03  1.82512000E-02  0.00000000E+00  3.21960000E-03
  9.12660000E-03 -5.09101000E-02  2.01160000E-03  9.05674700E-01  0.00000000E+00
 -7.32503000E-02  0.00000000E+00  0.00000000E+00 -2.22011800E-01  0.00000000E+00
  0.00000000E+00 -5.39322800E-01  0.00000000E+00 -1.94230000E-03  0.00000000E+00
  0.00000000E+00  8.51220000E-03  0.00000000E+00  1.22546300E-01  0.00000000E+00
  0.00000000E+00  4.97584700E-01  0.00000000E+00  0.00000000E+00  0.00000000E+00
  6.46940000E-03  0.00000000E+00  0.00000000E+00  0.00000000E+00 -8.47420000E-03
  4.86367000E-02 -6.38128500E-01 -3.36740000E-02  3.20584400E-01  3.04856000E-01
  0.00000000E+00  4.86367000E-02 -6.38128500E-01 -3.36740000E-02 -3.20584400E-01
  3.04856000E-01  0.00000000E+00  0.00000000E+00  0.00000000E+00  0.00000000E+00
  0.00000000E+00  0.00000000E+00  0.00000000E+00  0.00000000E+00  0.00000000E+00
  0.00000000E+00  0.00000000E+00  0.00000000E+00  0.00000000E+00  0.00000000E+00
  0.00000000E+00  0.00000000E+00  4.91220000E-03  0.00000000E+00  0.00000000E+00
  0.00000000E+00  0.00000000E+00  5.33207600E-01  0.00000000E+00  0.00000000E+00
  0.00000000E+00  0.00000000E+00  0.00000000E+00  0.00000000E+00  0.00000000E+00
  1.48086000E-02  0.00000000E+00  0.00000000E+00  0.00000000E+00  0.00000000E+00
  0.00000000E+00  0.00000000E+00  0.00000000E+00  4.28646700E-01  0.00000000E+00
  0.00000000E+00  0.00000000E+00  0.00000000E+00  0.00000000E+00 -4.28646700E-01
  0.00000000E+00  0.00000000E+00  0.00000000E+00  0.00000000E+00  0.00000000E+00
  0.00000000E+00  0.00000000E+00 -9.14709000E-02  0.00000000E+00  0.00000000E+00
 -8.96863000E-02  0.00000000E+00  0.00000000E+00 -1.82248300E-01  0.00000000E+00
  0.00000000E+00  3.87940000E-03  0.00000000E+00  0.00000000E+00  0.00000000E+00
  0.00000000E+00 -6.74503200E-01  0.00000000E+00  0.00000000E+00  7.96470000E-03
  0.00000000E+00  0.00000000E+00 -1.50157000E-02  0.00000000E+00  0.00000000E+00
  0.00000000E+00  0.00000000E+00  0.00000000E+00  0.00000000E+00  0.00000000E+00
  0.00000000E+00  3.83123800E-01  0.00000000E+00  0.00000000E+00  0.00000000E+00
  0.00000000E+00  0.00000000E+00  3.83123800E-01  0.00000000E+00  0.00000000E+00
  0.00000000E+00  0.00000000E+00  0.00000000E+00 -1.28894300E-01  0.00000000E+00
  0.00000000E+00  1.11760330E+00  0.00000000E+00  0.00000000E+00  9.84202700E-01
  0.00000000E+00  0.00000000E+00  0.00000000E+00  0.00000000E+00  0.00000000E+00
  0.00000000E+00  1.72556000E-02  0.00000000E+00  0.00000000E+00  0.00000000E+00
  0.00000000E+00 -1.29608510E+00  0.00000000E+00 -6.38716000E-02  0.00000000E+00
  0.00000000E+00  0.00000000E+00 -3.86354000E-02  0.00000000E+00  3.47717600E-01
 -2.33042980E+00  4.84803500E-01  2.83429500E-01 -5.02608800E-01  0.00000000E+00
 -3.47717600E-01  2.33042980E+00 -4.84803500E-01  2.83429500E-01  5.02608800E-01
  0.00000000E+00 -1.47499000E-02 -5.33901000E-02  4.64332600E-01 -1.04800320E+00
 -1.96261370E+00  0.00000000E+00 -1.03526000E-01  0.00000000E+00  0.00000000E+00
  6.64671300E-01  0.00000000E+00  0.00000000E+00  9.69117800E-01  0.00000000E+00
 -1.35731000E-02  0.00000000E+00  0.00000000E+00  1.77300000E-04  0.00000000E+00
  1.17048680E+00  0.00000000E+00  0.00000000E+00 -3.03360700E-01  0.00000000E+00
  0.00000000E+00  0.00000000E+00 -4.52119000E-02  0.00000000E+00  0.00000000E+00
  0.00000000E+00  7.12797000E-02 -3.53767500E-01  2.28542410E+00 -1.86281500E-01
 -3.43911800E-01  2.26064000E-01  0.00000000E+00 -3.53767500E-01  2.28542410E+00
 -1.86281500E-01  3.43911800E-01  2.26064000E-01  0.00000000E+00  0.00000000E+00
  0.00000000E+00  0.00000000E+00  0.00000000E+00  0.00000000E+00  1.60792700E-01
  0.00000000E+00  0.00000000E+00 -3.38463200E-01  0.00000000E+00  0.00000000E+00
  3.16550600E-01  0.00000000E+00  0.00000000E+00  0.00000000E+00  0.00000000E+00
  0.00000000E+00  0.00000000E+00 -1.68584000E-02  0.00000000E+00  0.00000000E+00
  0.00000000E+00  0.00000000E+00  5.05783300E-01  0.00000000E+00  2.18353000E-02
  0.00000000E+00  0.00000000E+00  0.00000000E+00  3.50104000E-02  0.00000000E+00
 -1.09293300E-01  5.24001200E-01 -3.39642200E-01 -6.30992500E-01 -4.98897300E-01
  0.00000000E+00  1.09293300E-01 -5.24001200E-01  3.39642200E-01 -6.30992500E-01
  4.98897300E-01  0.00000000E+00  1.34519000E-02  6.24120000E-02 -8.55546600E-01
  2.88699280E+00 -4.92680000E-02  0.00000000E+00  3.53871400E-01  0.00000000E+00
  0.00000000E+00 -1.38784640E+00  0.00000000E+00  0.00000000E+00  1.06694000E-02
  0.00000000E+00 -2.64680000E-03  0.00000000E+00  0.00000000E+00 -1.78660000E-03
  0.00000000E+00  1.04344800E-01  0.00000000E+00  0.00000000E+00  2.41183000E-01
  0.00000000E+00  0.00000000E+00  0.00000000E+00  6.89512000E-02  0.00000000E+00
  0.00000000E+00  0.00000000E+00 -1.53087800E-01  5.66683000E-01 -1.97040620E+00
  4.53004300E-01  6.90965100E-01 -7.00364800E-01  0.00000000E+00  5.66683000E-01
 -1.97040620E+00  4.53004300E-01 -6.90965100E-01 -7.00364800E-01  0.00000000E+00
  0.00000000E+00  0.00000000E+00  0.00000000E+00  0.00000000E+00  0.00000000E+00
  0.00000000E+00  0.00000000E+00  2.82192300E-01  0.00000000E+00  0.00000000E+00
 -4.79310000E-02  0.00000000E+00  0.00000000E+00  4.33388500E-01  0.00000000E+00
  0.00000000E+00  1.82351000E-02  0.00000000E+00  0.00000000E+00  0.00000000E+00
  0.00000000E+00 -9.05104700E-01  0.00000000E+00  0.00000000E+00 -3.43330000E-03
  0.00000000E+00  0.00000000E+00 -1.21526000E-02  0.00000000E+00  0.00000000E+00
  0.00000000E+00  0.00000000E+00  0.00000000E+00  0.00000000E+00  0.00000000E+00
  0.00000000E+00 -7.83870000E-01  0.00000000E+00  0.00000000E+00  0.00000000E+00
  0.00000000E+00  0.00000000E+00 -7.83870000E-01  0.00000000E+00  0.00000000E+00
  0.00000000E+00  0.00000000E+00  0.00000000E+00  0.00000000E+00  0.00000000E+00
  0.00000000E+00  0.00000000E+00  0.00000000E+00  0.00000000E+00  0.00000000E+00
  0.00000000E+00  0.00000000E+00  0.00000000E+00 -2.47817000E-02  0.00000000E+00
  0.00000000E+00  0.00000000E+00  0.00000000E+00  1.11122250E+00  0.00000000E+00
  0.00000000E+00  0.00000000E+00  0.00000000E+00  0.00000000E+00  0.00000000E+00
  0.00000000E+00 -4.51630000E-03  0.00000000E+00  0.00000000E+00  0.00000000E+00
  0.00000000E+00  0.00000000E+00  0.00000000E+00  0.00000000E+00 -7.76468900E-01
  0.00000000E+00  0.00000000E+00  0.00000000E+00  0.00000000E+00  0.00000000E+00
  7.76468900E-01  0.00000000E+00  0.00000000E+00  0.00000000E+00  0.00000000E+00
  0.00000000E+00 -3.47277300E-01  0.00000000E+00  0.00000000E+00  2.27193320E+00
  0.00000000E+00  0.00000000E+00 -3.05388700E-01  0.00000000E+00  0.00000000E+00
  0.00000000E+00  0.00000000E+00  0.00000000E+00  0.00000000E+00  2.94373000E-02
  0.00000000E+00  0.00000000E+00  0.00000000E+00  0.00000000E+00 -2.06133100E-01
  0.00000000E+00 -1.20720600E-01  0.00000000E+00  0.00000000E+00  0.00000000E+00
 -6.23974000E-02  0.00000000E+00  3.79539100E-01 -1.95038330E+00  7.20380400E-01
  9.34798600E-01 -8.26292500E-01  0.00000000E+00 -3.79539100E-01  1.95038330E+00
 -7.20380400E-01  9.34798600E-01  8.26292500E-01  0.00000000E+00 -1.46991000E-02
 -5.61965000E-02  4.91127800E-01 -1.10319230E+00 -4.95956400E-01  0.00000000E+00
  3.90327100E-01  0.00000000E+00  0.00000000E+00  1.26160800E-01  0.00000000E+00
  0.00000000E+00  7.29327200E-01  0.00000000E+00  4.12860000E-03  0.00000000E+00
  0.00000000E+00 -1.04779000E-02  0.00000000E+00  1.74025000E-01  0.00000000E+00
  0.00000000E+00  1.11991020E+00  0.00000000E+00  0.00000000E+00  0.00000000E+00
 -1.90497000E-02  0.00000000E+00  0.00000000E+00  0.00000000E+00  5.34282000E-02
 -1.73058700E-01  8.61182600E-01 -2.18129000E-02 -7.87388400E-01 -4.31193400E-01
  0.00000000E+00 -1.73058700E-01  8.61182600E-01 -2.18129000E-02  7.87388400E-01
 -4.31193400E-01  0.00000000E+00  0.00000000E+00  0.00000000E+00  0.00000000E+00
  0.00000000E+00  0.00000000E+00 -1.00011580E+00  0.00000000E+00  0.00000000E+00
  3.66385000E-02  0.00000000E+00  0.00000000E+00 -1.02172900E+00  0.00000000E+00
  0.00000000E+00  0.00000000E+00  0.00000000E+00  0.00000000E+00  0.00000000E+00
 -3.65455000E-02  0.00000000E+00  0.00000000E+00  0.00000000E+00  0.00000000E+00
  8.65869200E-01  0.00000000E+00  4.56340000E-02  0.00000000E+00  0.00000000E+00
  0.00000000E+00  2.52847000E-02  0.00000000E+00  3.08416600E-01  8.80577000E-01
  4.06920300E-01 -7.70394100E-01  4.98972500E-01  0.00000000E+00 -3.08416600E-01
 -8.80577000E-01 -4.06920300E-01 -7.70394100E-01 -4.98972500E-01  0.00000000E+00
  4.22432000E-02  1.28707800E-01 -3.22289400E-01 -8.21153500E-01 -1.47814730E+00
  0.00000000E+00  8.57931400E-01  0.00000000E+00  0.00000000E+00 -1.42028500E-01
  0.00000000E+00  0.00000000E+00  6.87173900E-01  0.00000000E+00 -1.93383000E-02
  0.00000000E+00  0.00000000E+00  1.58915000E-02  0.00000000E+00  5.11790600E-01
  0.00000000E+00  0.00000000E+00 -6.61456400E-01  0.00000000E+00  0.00000000E+00
  0.00000000E+00 -4.76790000E-02  0.00000000E+00  0.00000000E+00  0.00000000E+00
  7.29273000E-02  2.21919400E-01  1.12440790E+00  1.70595000E-01 -5.74619200E-01
  8.55524700E-01  0.00000000E+00  2.21919400E-01  1.12440790E+00  1.70595000E-01
  5.74619200E-01  8.55524700E-01  0.00000000E+00  0.00000000E+00  0.00000000E+00
  0.00000000E+00  0.00000000E+00  0.00000000E+00  0.00000000E+00  0.00000000E+00
 -1.19146580E+00  0.00000000E+00  0.00000000E+00  1.66867360E+00  0.00000000E+00
  0.00000000E+00 -5.60932100E-01  0.00000000E+00  0.00000000E+00  8.26700000E-03
  0.00000000E+00  0.00000000E+00  0.00000000E+00  0.00000000E+00 -2.36981500E-01
  0.00000000E+00  0.00000000E+00  1.64583000E-02  0.00000000E+00  0.00000000E+00
 -9.34090000E-03  0.00000000E+00  0.00000000E+00  0.00000000E+00  0.00000000E+00
  0.00000000E+00  0.00000000E+00  0.00000000E+00  0.00000000E+00 -3.06671300E-01
  0.00000000E+00  0.00000000E+00  0.00000000E+00  0.00000000E+00  0.00000000E+00
 -3.06671300E-01 -1.09527100E-01 -3.83835800E-01  2.27443960E+00 -2.69775240E+00
  2.83465190E+00  0.00000000E+00  5.31525200E-01  0.00000000E+00  0.00000000E+00
 -1.27494440E+00  0.00000000E+00  0.00000000E+00 -2.90992500E-01  0.00000000E+00
 -1.43600000E-04  0.00000000E+00  0.00000000E+00 -4.90500000E-04  0.00000000E+00
 -3.76272000E-01  0.00000000E+00  0.00000000E+00 -2.26218700E-01  0.00000000E+00
  0.00000000E+00  0.00000000E+00  4.86700000E-03  0.00000000E+00  0.00000000E+00
  0.00000000E+00 -3.41202000E-02 -1.20566800E-01 -7.93425800E-01 -3.30892900E-01
  5.53937700E-01 -1.74027000E-02  0.00000000E+00 -1.20566800E-01 -7.93425800E-01
 -3.30892900E-01 -5.53937700E-01 -1.74027000E-02  0.00000000E+00  4.99689000E-02
  2.15851800E-01 -2.35837070E+00  5.39539010E+00 -5.27225500E-01  0.00000000E+00
  5.11144600E-01  0.00000000E+00  0.00000000E+00 -2.47111440E+00  0.00000000E+00
  0.00000000E+00  3.84654000E-02  0.00000000E+00  4.74685000E-02  0.00000000E+00
  0.00000000E+00 -4.36404000E-02  0.00000000E+00 -9.60454500E-01  0.00000000E+00
  0.00000000E+00  2.45322500E-01  0.00000000E+00  0.00000000E+00  0.00000000E+00
 -9.69056000E-02  0.00000000E+00  0.00000000E+00  0.00000000E+00  1.50457800E-01
 -7.89745400E-01 -1.63505090E+00  3.59559900E-01  1.17612990E+00 -6.49681300E-01
  0.00000000E+00 -7.89745400E-01 -1.63505090E+00  3.59559900E-01 -1.17612990E+00
 -6.49681300E-01  0.00000000E+00  0.00000000E+00  0.00000000E+00  0.00000000E+00
  0.00000000E+00  0.00000000E+00  6.81245300E-01  0.00000000E+00  0.00000000E+00
 -3.19240410E+00  0.00000000E+00  0.00000000E+00  1.42858800E-01  0.00000000E+00
  0.00000000E+00  0.00000000E+00  0.00000000E+00  0.00000000E+00  0.00000000E+00
 -5.71244000E-02  0.00000000E+00  0.00000000E+00  0.00000000E+00  0.00000000E+00
  1.66423590E+00  0.00000000E+00 -3.16171200E-01  0.00000000E+00  0.00000000E+00
  0.00000000E+00 -1.01125000E-01  0.00000000E+00  1.00788530E+00  1.48323010E+00
 -4.05298800E-01 -9.29698800E-01  8.36175200E-01  0.00000000E+00 -1.00788530E+00
 -1.48323010E+00  4.05298800E-01 -9.29698800E-01 -8.36175200E-01  0.00000000E+00
  0.00000000E+00  0.00000000E+00  0.00000000E+00  0.00000000E+00  0.00000000E+00
  0.00000000E+00  0.00000000E+00 -4.71610000E-03  0.00000000E+00  0.00000000E+00
  1.35310000E-02  0.00000000E+00  0.00000000E+00  5.08490000E-03  0.00000000E+00
  0.00000000E+00  1.55943000E-02  0.00000000E+00  0.00000000E+00  0.00000000E+00
  0.00000000E+00 -3.69413000E-02  0.00000000E+00  0.00000000E+00  2.84053500E-01
  0.00000000E+00  0.00000000E+00  9.58676800E-01  0.00000000E+00  0.00000000E+00
  0.00000000E+00  0.00000000E+00  0.00000000E+00  0.00000000E+00  0.00000000E+00
  0.00000000E+00 -2.08767000E-02  0.00000000E+00  0.00000000E+00  0.00000000E+00
  0.00000000E+00  0.00000000E+00 -2.08767000E-02  6.10000000E-06 -1.11450000E-03
  3.91490000E-02 -1.20504300E-01 -1.76608500E-01  0.00000000E+00 -4.81477000E-02
  0.00000000E+00  0.00000000E+00  1.91869100E-01  0.00000000E+00  0.00000000E+00
  1.05657900E-01  0.00000000E+00  4.34706000E-02  0.00000000E+00  0.00000000E+00
  1.50880700E-01  0.00000000E+00  2.27961000E-02  0.00000000E+00  0.00000000E+00
  8.14955000E-02  0.00000000E+00  0.00000000E+00  0.00000000E+00 -8.90353800E-01
  0.00000000E+00  0.00000000E+00  0.00000000E+00 -4.61708100E-01  9.31720000E-03
  1.69887600E-01  8.27700000E-04 -1.59090300E-01 -1.08494800E-01  0.00000000E+00
  9.31720000E-03  1.69887600E-01  8.27700000E-04  1.59090300E-01 -1.08494800E-01
  0.00000000E+00  0.00000000E+00  0.00000000E+00  0.00000000E+00  0.00000000E+00
  0.00000000E+00  0.00000000E+00  0.00000000E+00 -6.82814000E-02  0.00000000E+00
  0.00000000E+00  1.85573600E-01  0.00000000E+00  0.00000000E+00  6.84398000E-02
  0.00000000E+00  0.00000000E+00 -1.86341700E-01  0.00000000E+00  0.00000000E+00
  0.00000000E+00  0.00000000E+00 -8.68641000E-02  0.00000000E+00  0.00000000E+00
 -9.86675900E-01  0.00000000E+00  0.00000000E+00  2.99180100E-01  0.00000000E+00
  0.00000000E+00  0.00000000E+00  0.00000000E+00  0.00000000E+00  0.00000000E+00
  0.00000000E+00  0.00000000E+00 -2.80136400E-01  0.00000000E+00  0.00000000E+00
  0.00000000E+00  0.00000000E+00  0.00000000E+00 -2.80136400E-01  0.00000000E+00
  0.00000000E+00  0.00000000E+00  0.00000000E+00  0.00000000E+00  0.00000000E+00
  0.00000000E+00  0.00000000E+00  0.00000000E+00  0.00000000E+00  0.00000000E+00