Generated by MOKIT
SP        RHF                                                         MYBAS
Number of atoms                            I                3
Charge                                     I                0
Multiplicity                               I                1
Number of electrons                        I               10
Number of alpha electrons                  I                5
Number of beta electrons                   I                5
Number of basis functions                  I               58
Number of independent functions            I               58
Atomic numbers                             I   N=           3
           8           1           1
Nuclear charges                            R   N=           3
  8.00000000E+00  1.00000000E+00  1.00000000E+00
Current cartesian coordinates              R   N=           9
  0.00000000E+00  2.16717571E-01  0.00000000E+00  1.42497822E+00 -8.66866506E-01
  0.00000000E+00 -1.42497822E+00 -8.66866506E-01  0.00000000E+00
Int Atom Types                             I   N=           3
           0           0           0
Real atomic weights                        R   N=           3
  1.59949146E+01  1.00782504E+00  1.00782504E+00
Number of contracted shells                I               22
Number of primitive shells                 I               42
Highest angular momentum                   I                3
Largest degree of contraction              I                8
Shell types                                I   N=          22
           0           0           0           0           1           1
           1          -2          -2          -3           0           0
           0           1           1          -2           0           0
           0           1           1          -2
Number of primitives per shell             I   N=          22
           8           8           1           1           3           1
           1           1           1           1           3           1
           1           1           1           1           3           1
           1           1           1           1
Shell to atom map                          I   N=          22
           1           1           1           1           1           1
           1           1           1           1           2           2
           2           2           2           2           3           3
           3           3           3           3
Primitive exponents                        R   N=          42
  1.53300000E+04  2.29900000E+03  5.22400000E+02  1.47300000E+02  4.75500000E+01
  1.67600000E+01  6.20700000E+00  6.88200000E-01  1.53300000E+04  2.29900000E+03
  5.22400000E+02  1.47300000E+02  4.75500000E+01  1.67600000E+01  6.20700000E+00
  6.88200000E-01  1.75200000E+00  2.38400000E-01  3.44600000E+01  7.74900000E+00
  2.28000000E+00  7.15600000E-01  2.14000000E-01  2.31400000E+00  6.45000000E-01
  1.42800000E+00  3.38700000E+01  5.09500000E+00  1.15900000E+00  3.25800000E-01
  1.02700000E-01  1.40700000E+00  3.88000000E-01  1.05700000E+00  3.38700000E+01
  5.09500000E+00  1.15900000E+00  3.25800000E-01  1.02700000E-01  1.40700000E+00
  3.88000000E-01  1.05700000E+00
Contraction coefficients                   R   N=          42
  5.20198307E-04  4.02334478E-03  2.07290833E-02  8.10823271E-02  2.36226352E-01
  4.43518209E-01  3.58670589E-01 -8.34979660E-03 -1.97236012E-04 -1.53501070E-03
 -7.95118391E-03 -3.21134529E-02 -1.00269643E-01 -2.34047112E-01 -3.01410928E-01
  1.03491965E+00  1.00000000E+00  1.00000000E+00  4.11634896E-02  2.57762836E-01
  8.02419275E-01  1.00000000E+00  1.00000000E+00  1.00000000E+00  1.00000000E+00
  1.00000000E+00  2.54948633E-02  1.90362766E-01  8.52162022E-01  1.00000000E+00
  1.00000000E+00  1.00000000E+00  1.00000000E+00  1.00000000E+00  2.54948633E-02
  1.90362766E-01  8.52162022E-01  1.00000000E+00  1.00000000E+00  1.00000000E+00
  1.00000000E+00  1.00000000E+00
Coordinates of each shell                  R   N=          66
  0.00000000E+00  2.16717571E-01  0.00000000E+00  0.00000000E+00  2.16717571E-01
  0.00000000E+00  0.00000000E+00  2.16717571E-01  0.00000000E+00  0.00000000E+00
  2.16717571E-01  0.00000000E+00  0.00000000E+00  2.16717571E-01  0.00000000E+00
  0.00000000E+00  2.16717571E-01  0.00000000E+00  0.00000000E+00  2.16717571E-01
  0.00000000E+00  0.00000000E+00  2.16717571E-01  0.00000000E+00  0.00000000E+00
  2.16717571E-01  0.00000000E+00  0.00000000E+00  2.16717571E-01  0.00000000E+00
  1.42497822E+00 -8.66866506E-01  0.00000000E+00  1.42497822E+00 -8.66866506E-01
  0.00000000E+00  1.42497822E+00 -8.66866506E-01  0.00000000E+00  1.42497822E+00
 -8.66866506E-01  0.00000000E+00  1.42497822E+00 -8.66866506E-01  0.00000000E+00
  1.42497822E+00 -8.66866506E-01  0.00000000E+00 -1.42497822E+00 -8.66866506E-01
  0.00000000E+00 -1.42497822E+00 -8.66866506E-01  0.00000000E+00 -1.42497822E+00
 -8.66866506E-01  0.00000000E+00 -1.42497822E+00 -8.66866506E-01  0.00000000E+00
 -1.42497822E+00 -8.66866506E-01  0.00000000E+00 -1.42497822E+00 -8.66866506E-01
  0.00000000E+00
Num ILSW                                   I              100
ILSW                                       I   N=         100
           0           0           0           0           2           0
           0           0           0           0           0          -1
           5           0           0           0           0           0
           0           0           0           0           0           0
           1           1           0           0           0           0
           0           0      100000           0          -1           0
           0           0           0           0           0           0
           0           0           0           1           0           0
           0 -2000000000           1           0           0           0
           0           0           4          52           0           0
           0           0           0           0           0           0
           0           0           0           3           0           1
           0           0           0           0           0           0
           0           0           0           0           0           0
           0           0           0           0           0           0
           0           0           0           0           0           0
           0           0           0           0
Virial Ratio                               R      0.200000000000000E+01
Total Energy                               R      0.000000000000000E+00
Alpha Orbital Energies                     R   N=          58
 -2.05524514E+01 -1.35009500E+00 -7.17177400E-01 -5.77620300E-01 -5.04955700E-01
  1.43556200E-01  2.04725000E-01  5.50059500E-01  6.04516700E-01  6.67459100E-01
  7.87603900E-01  8.05122700E-01  8.07693400E-01  8.61212100E-01  9.60873600E-01
  1.12386750E+00  1.20019970E+00  1.53871380E+00  1.57976540E+00  2.03679980E+00
  2.03982270E+00  2.07235270E+00  2.17169710E+00  2.23323910E+00  2.60235090E+00
  2.96963580E+00  3.36622290E+00  3.50215790E+00  3.58211160E+00  3.66426210E+00
  3.81096980E+00  3.88608800E+00  3.89216360E+00  3.96573240E+00  4.02381440E+00
  4.08373970E+00  4.20490630E+00  4.33600600E+00  4.41409990E+00  4.59243510E+00
  4.69679950E+00  4.89147720E+00  5.18993380E+00  5.26351640E+00  5.54102670E+00
  6.07242110E+00  6.59885260E+00  6.95976570E+00  6.96658880E+00  7.01873390E+00
  7.05080680E+00  7.12391130E+00  7.17260220E+00  7.26324520E+00  7.47779270E+00
  7.82204600E+00  8.33187520E+00  1.30506008E+01
Alpha MO coefficients                      R   N=        3364
  9.75874500E-01 -5.53000000E-04  4.35480000E-02  1.23640000E-03  0.00000000E+00
 -1.88870000E-03  0.00000000E+00  0.00000000E+00  1.43600000E-03  0.00000000E+00
  0.00000000E+00  1.41000000E-04  0.00000000E+00 -6.59000000E-05  0.00000000E+00
  0.00000000E+00  1.47000000E-05  0.00000000E+00  5.02500000E-04  0.00000000E+00
  0.00000000E+00 -1.09200000E-04  0.00000000E+00  0.00000000E+00  0.00000000E+00
 -6.60000000E-05  0.00000000E+00  0.00000000E+00  0.00000000E+00  5.47000000E-05
  5.13700000E-04  9.62700000E-04 -2.51500000E-04 -2.12400000E-04  1.04600000E-04
  0.00000000E+00 -4.33800000E-04  2.84400000E-04  0.00000000E+00  5.60000000E-05
  0.00000000E+00  0.00000000E+00  3.13000000E-05  1.51600000E-04  5.13700000E-04
  9.62700000E-04 -2.51500000E-04  2.12400000E-04  1.04600000E-04  0.00000000E+00
  4.33800000E-04  2.84400000E-04  0.00000000E+00  5.60000000E-05  0.00000000E+00
  0.00000000E+00  3.13000000E-05 -1.51600000E-04  8.98220000E-03 -5.03008900E-01
 -1.31865900E-01 -2.81368900E-01  0.00000000E+00  4.54088000E-02  0.00000000E+00
  0.00000000E+00  6.43204000E-02  0.00000000E+00  0.00000000E+00  1.25023000E-02
  0.00000000E+00  3.90530000E-03  0.00000000E+00  0.00000000E+00 -1.13910000E-03
  0.00000000E+00  8.03470000E-03  0.00000000E+00  0.00000000E+00 -1.55640000E-03
  0.00000000E+00  0.00000000E+00  0.00000000E+00 -1.70460000E-03  0.00000000E+00
  0.00000000E+00  0.00000000E+00  2.45910000E-03 -9.09902000E-02 -7.29627000E-02
 -6.08580000E-03  1.07983000E-02 -7.46930000E-03  0.00000000E+00  9.78760000E-03
 -4.69220000E-03  0.00000000E+00  1.20240000E-03  0.00000000E+00  0.00000000E+00
 -8.06800000E-04  2.01840000E-03 -9.09902000E-02 -7.29627000E-02 -6.08580000E-03
 -1.07983000E-02 -7.46930000E-03  0.00000000E+00 -9.78760000E-03 -4.69220000E-03
  0.00000000E+00  1.20240000E-03  0.00000000E+00  0.00000000E+00 -8.06800000E-04
 -2.01840000E-03  0.00000000E+00  0.00000000E+00  0.00000000E+00  0.00000000E+00
  2.83409800E-01  0.00000000E+00  0.00000000E+00  3.38376000E-01  0.00000000E+00
  0.00000000E+00  1.55255000E-01  0.00000000E+00  0.00000000E+00  0.00000000E+00
  0.00000000E+00  0.00000000E+00  0.00000000E+00 -1.30865000E-02  0.00000000E+00
  0.00000000E+00  0.00000000E+00  0.00000000E+00 -2.17700000E-02  0.00000000E+00
 -3.18830000E-03  0.00000000E+00  0.00000000E+00  0.00000000E+00  7.66700000E-04
  0.00000000E+00  1.43770500E-01  2.21265100E-01  5.94363000E-02 -1.01238000E-02
  1.31340000E-02  0.00000000E+00 -2.02827000E-02  2.40004000E-02  0.00000000E+00
 -3.89270000E-03  0.00000000E+00  0.00000000E+00  7.78000000E-05 -6.03870000E-03
 -1.43770500E-01 -2.21265100E-01 -5.94363000E-02 -1.01238000E-02 -1.31340000E-02
  0.00000000E+00 -2.02827000E-02 -2.40004000E-02  0.00000000E+00  3.89270000E-03
  0.00000000E+00  0.00000000E+00 -7.78000000E-05 -6.03870000E-03 -2.40630000E-03
 -1.78834800E-01 -5.31949000E-02 -2.77682400E-01  0.00000000E+00 -3.14270700E-01
  0.00000000E+00  0.00000000E+00 -3.83835100E-01  0.00000000E+00  0.00000000E+00
 -2.78759700E-01  0.00000000E+00 -5.58360000E-03  0.00000000E+00  0.00000000E+00
 -3.16720000E-03  0.00000000E+00 -1.40054000E-02  0.00000000E+00  0.00000000E+00
 -1.27896000E-02  0.00000000E+00  0.00000000E+00  0.00000000E+00  2.87460000E-03
  0.00000000E+00  0.00000000E+00  0.00000000E+00 -1.45480000E-03  8.54527000E-02
  1.36954900E-01  2.46270000E-02 -9.70690000E-03 -9.93600000E-04  0.00000000E+00
 -2.10543000E-02 -1.28567000E-02  0.00000000E+00 -1.72300000E-03  0.00000000E+00
  0.00000000E+00  3.67210000E-03 -6.57300000E-04  8.54527000E-02  1.36954900E-01
  2.46270000E-02  9.70690000E-03 -9.93600000E-04  0.00000000E+00  2.10543000E-02
 -1.28567000E-02  0.00000000E+00 -1.72300000E-03  0.00000000E+00  0.00000000E+00
  3.67210000E-03  6.57300000E-04  0.00000000E+00  0.00000000E+00  0.00000000E+00
  0.00000000E+00  0.00000000E+00  0.00000000E+00 -3.56767200E-01  0.00000000E+00
  0.00000000E+00 -4.43912800E-01  0.00000000E+00  0.00000000E+00 -3.75388000E-01
  0.00000000E+00  0.00000000E+00  5.25610000E-03  0.00000000E+00  0.00000000E+00
  0.00000000E+00  0.00000000E+00  1.80410000E-02  0.00000000E+00  0.00000000E+00
  4.12830000E-03  0.00000000E+00  0.00000000E+00 -1.28950000E-03  0.00000000E+00
  0.00000000E+00  0.00000000E+00  0.00000000E+00  0.00000000E+00  0.00000000E+00
  0.00000000E+00  0.00000000E+00 -1.03665000E-02  0.00000000E+00  0.00000000E+00
 -3.12840000E-02  0.00000000E+00  4.18920000E-03 -2.86520000E-03  0.00000000E+00
  0.00000000E+00  0.00000000E+00  0.00000000E+00  0.00000000E+00  0.00000000E+00
  0.00000000E+00 -1.03665000E-02  0.00000000E+00  0.00000000E+00 -3.12840000E-02
  0.00000000E+00 -4.18920000E-03 -2.86520000E-03  0.00000000E+00  0.00000000E+00
  2.80335000E-02 -1.06942500E-01 -3.94477000E-02 -1.59787140E+00  0.00000000E+00
  7.59955000E-02  0.00000000E+00  0.00000000E+00  1.93548200E-01  0.00000000E+00
  0.00000000E+00  4.63808900E-01  0.00000000E+00 -1.58020000E-03  0.00000000E+00
  0.00000000E+00  2.02080000E-03  0.00000000E+00  5.04676000E-02  0.00000000E+00
  0.00000000E+00 -2.03087000E-02  0.00000000E+00  0.00000000E+00  0.00000000E+00
 -4.11000000E-03  0.00000000E+00  0.00000000E+00  0.00000000E+00  8.75050000E-03
  2.65558000E-02  3.02284100E-01  9.28055300E-01  5.48720000E-03 -9.47300000E-04
  0.00000000E+00 -1.51961100E-01  1.13021800E-01  0.00000000E+00 -9.29550000E-03
  0.00000000E+00  0.00000000E+00  9.84200000E-04 -1.77130000E-02  2.65558000E-02
  3.02284100E-01  9.28055200E-01 -5.48720000E-03 -9.47300000E-04  0.00000000E+00
  1.51961100E-01  1.13021800E-01  0.00000000E+00 -9.29550000E-03  0.00000000E+00
  0.00000000E+00  9.84200000E-04  1.77130000E-02  0.00000000E+00  0.00000000E+00
  0.00000000E+00  0.00000000E+00 -1.33462300E-01  0.00000000E+00  0.00000000E+00
 -2.02017600E-01  0.00000000E+00  0.00000000E+00 -8.51874700E-01  0.00000000E+00
  0.00000000E+00  0.00000000E+00  0.00000000E+00  0.00000000E+00  0.00000000E+00
 -2.76360000E-03  0.00000000E+00  0.00000000E+00  0.00000000E+00  0.00000000E+00
  5.98936000E-02  0.00000000E+00  2.74650000E-03  0.00000000E+00  0.00000000E+00
  0.00000000E+00 -9.00000000E-07  0.00000000E+00  1.52197000E-02  1.47667100E-01
  1.78222360E+00  1.19147000E-02 -1.11178000E-02  0.00000000E+00 -1.37988500E-01
  1.11812400E-01  0.00000000E+00 -7.43630000E-03  0.00000000E+00  0.00000000E+00
  5.35190000E-03 -9.37250000E-03 -1.52197000E-02 -1.47667100E-01 -1.78222360E+00
  1.19147000E-02  1.11178000E-02  0.00000000E+00 -1.37988500E-01 -1.11812400E-01
  0.00000000E+00  7.43630000E-03  0.00000000E+00  0.00000000E+00 -5.35190000E-03
 -9.37250000E-03  0.00000000E+00  0.00000000E+00  0.00000000E+00  0.00000000E+00
 -1.01767600E-01  0.00000000E+00  0.00000000E+00 -2.94092600E-01  0.00000000E+00
  0.00000000E+00 -1.33828640E+00  0.00000000E+00  0.00000000E+00  0.00000000E+00
  0.00000000E+00  0.00000000E+00  0.00000000E+00 -2.73349000E-02  0.00000000E+00
  0.00000000E+00  0.00000000E+00  0.00000000E+00  1.53876700E-01  0.00000000E+00
  2.00784000E-02  0.00000000E+00  0.00000000E+00  0.00000000E+00  1.11052000E-02
  0.00000000E+00  9.86293000E-02  1.61512590E+00 -5.42998300E-01 -5.09021000E-02
  3.15104000E-02  0.00000000E+00 -6.39839000E-02 -1.45850000E-02  0.00000000E+00
 -1.14753000E-02  0.00000000E+00  0.00000000E+00  1.39416000E-02 -3.11408000E-02
 -9.86293000E-02 -1.61512590E+00  5.42998300E-01 -5.09021000E-02 -3.15104000E-02
  0.00000000E+00 -6.39839000E-02  1.45850000E-02  0.00000000E+00  1.14753000E-02
  0.00000000E+00  0.00000000E+00 -1.39416000E-02 -3.11408000E-02  2.57302000E-02
  2.02923700E-01  2.54563000E-02  1.00073810E+00  0.00000000E+00 -8.09012000E-02
  0.00000000E+00  0.00000000E+00 -1.56485500E-01  0.00000000E+00  0.00000000E+00
 -7.74931700E-01  0.00000000E+00  1.51361000E-02  0.00000000E+00  0.00000000E+00
 -1.62432000E-02  0.00000000E+00 -4.26827000E-02  0.00000000E+00  0.00000000E+00
  3.98879000E-02  0.00000000E+00  0.00000000E+00  0.00000000E+00  8.54890000E-03
  0.00000000E+00  0.00000000E+00  0.00000000E+00 -2.08708000E-02 -8.10090000E-02
 -1.54617150E+00  5.46939400E-01  3.43173000E-02 -2.01795000E-02  0.00000000E+00
 -1.66290900E-01 -1.03965700E-01  0.00000000E+00  1.64455000E-02  0.00000000E+00
  0.00000000E+00  7.31870000E-03  1.45289000E-02 -8.10090000E-02 -1.54617150E+00
  5.46939400E-01 -3.43173000E-02 -2.01795000E-02  0.00000000E+00  1.66290900E-01
 -1.03965700E-01  0.00000000E+00  1.64455000E-02  0.00000000E+00  0.00000000E+00
  7.31870000E-03 -1.45289000E-02  4.00735000E-02  7.47536000E-02 -3.89766000E-02
  4.72396050E+00  0.00000000E+00  2.49038100E-01  0.00000000E+00  0.00000000E+00
  1.01967800E-01  0.00000000E+00  0.00000000E+00 -2.66613250E+00  0.00000000E+00
  2.67256000E-02  0.00000000E+00  0.00000000E+00  3.62860000E-03  0.00000000E+00
 -2.84196100E-01  0.00000000E+00  0.00000000E+00  6.76972000E-02  0.00000000E+00
  0.00000000E+00  0.00000000E+00  1.70273000E-02  0.00000000E+00  0.00000000E+00
  0.00000000E+00 -2.64502000E-02  3.43095000E-02 -2.30556000E+00 -4.99309800E-01
  2.28973000E-02 -1.53277000E-02  0.00000000E+00  9.84681800E-01 -5.90897300E-01
  0.00000000E+00  4.25296000E-02  0.00000000E+00  0.00000000E+00 -3.04028000E-02
  6.15167000E-02  3.43095000E-02 -2.30556000E+00 -4.99309800E-01 -2.28973000E-02
 -1.53277000E-02  0.00000000E+00 -9.84681800E-01 -5.90897300E-01  0.00000000E+00
  4.25296000E-02  0.00000000E+00  0.00000000E+00 -3.04028000E-02 -6.15167000E-02
  0.00000000E+00  0.00000000E+00  0.00000000E+00  2.00000000E-07  0.00000000E+00
  0.00000000E+00 -2.57905700E-01  0.00000000E+00  0.00000000E+00 -7.70252100E-01
  1.00000000E-07 -1.00000000E-07  1.20328400E+00  0.00000000E+00  0.00000000E+00
  9.37560000E-03  0.00000000E+00  0.00000000E+00  0.00000000E+00  0.00000000E+00
 -3.82706000E-02  0.00000000E+00  0.00000000E+00 -7.59490000E-03  0.00000000E+00
  0.00000000E+00  2.12970000E-03  0.00000000E+00  0.00000000E+00  0.00000000E+00
  0.00000000E+00 -1.00000000E-07 -1.00000000E-07  0.00000000E+00  0.00000000E+00
 -1.07417000E-02  1.00000000E-07  0.00000000E+00 -1.67236000E-02  0.00000000E+00
  2.04423000E-02 -1.36126000E-02  0.00000000E+00  0.00000000E+00  0.00000000E+00
  0.00000000E+00  0.00000000E+00  0.00000000E+00  0.00000000E+00 -1.07417000E-02
  0.00000000E+00  0.00000000E+00 -1.67236000E-02  0.00000000E+00 -2.04423000E-02
 -1.36126000E-02  0.00000000E+00  0.00000000E+00  0.00000000E+00  0.00000000E+00
  0.00000000E+00  0.00000000E+00  2.77887400E-01  0.00000000E+00  0.00000000E+00
 -4.45197000E-02  0.00000000E+00  0.00000000E+00 -2.99676600E+00 -1.00000000E-07
  0.00000000E+00  0.00000000E+00  0.00000000E+00  0.00000000E+00  0.00000000E+00
 -2.32811000E-02  0.00000000E+00  0.00000000E+00  0.00000000E+00  0.00000000E+00
  4.51817100E-01  0.00000000E+00  2.61022000E-02  0.00000000E+00  0.00000000E+00
  0.00000000E+00  1.92466000E-02  0.00000000E+00 -2.67761000E-02  1.68903850E+00
  1.50025000E+00 -4.45176000E-02  3.26905000E-02  0.00000000E+00 -9.43199000E-01
  7.62144200E-01  0.00000000E+00 -5.31278000E-02  0.00000000E+00  0.00000000E+00
  3.19524000E-02 -9.03024000E-02  2.67761000E-02 -1.68903860E+00 -1.50025000E+00
 -4.45176000E-02 -3.26905000E-02  0.00000000E+00 -9.43199100E-01 -7.62144100E-01
  0.00000000E+00  5.31278000E-02  0.00000000E+00  0.00000000E+00 -3.19524000E-02
 -9.03024000E-02 -1.93664000E-02 -1.32480900E-01 -2.47752000E-02 -5.07737600E-01
  0.00000000E+00  5.73129000E-02  0.00000000E+00  0.00000000E+00  1.48597900E-01
  0.00000000E+00 -1.00000000E-07  1.29460070E+00  0.00000000E+00 -9.62700000E-03
  0.00000000E+00  0.00000000E+00 -3.66655000E-02  0.00000000E+00 -2.81800000E-04
  0.00000000E+00  0.00000000E+00  1.72228200E-01  0.00000000E+00  0.00000000E+00
  0.00000000E+00 -1.14147000E-02  0.00000000E+00  0.00000000E+00  0.00000000E+00
 -1.29094000E-02 -9.36380000E-03  8.99978000E-01 -2.78325700E-01  2.22060000E-02
  3.58797000E-02  0.00000000E+00 -4.95697800E-01 -7.30908000E-01  0.00000000E+00
 -4.20730000E-03  0.00000000E+00  0.00000000E+00  5.54799000E-02  3.07265000E-02
 -9.36380000E-03  8.99977800E-01 -2.78325800E-01 -2.22060000E-02  3.58797000E-02
  0.00000000E+00  4.95697800E-01 -7.30908000E-01  0.00000000E+00 -4.20730000E-03
  0.00000000E+00  0.00000000E+00  5.54799000E-02 -3.07265000E-02  0.00000000E+00
  0.00000000E+00  0.00000000E+00  0.00000000E+00  0.00000000E+00  0.00000000E+00
  0.00000000E+00  0.00000000E+00  0.00000000E+00  0.00000000E+00  0.00000000E+00
  0.00000000E+00  0.00000000E+00  0.00000000E+00  2.81866000E-02  0.00000000E+00
  0.00000000E+00  0.00000000E+00  0.00000000E+00 -3.96929000E-02  0.00000000E+00
  0.00000000E+00  0.00000000E+00  0.00000000E+00  0.00000000E+00  0.00000000E+00
  0.00000000E+00  1.71266000E-02  0.00000000E+00  0.00000000E+00  0.00000000E+00
  0.00000000E+00  0.00000000E+00  0.00000000E+00  0.00000000E+00 -5.88102000E-02
  0.00000000E+00  0.00000000E+00  8.52537700E-01  0.00000000E+00 -1.51952000E-02
  2.70703000E-02  0.00000000E+00  0.00000000E+00  0.00000000E+00  0.00000000E+00
  0.00000000E+00  0.00000000E+00  0.00000000E+00  5.88102000E-02  0.00000000E+00
  0.00000000E+00 -8.52537700E-01  0.00000000E+00 -1.51952000E-02 -2.70703000E-02
  0.00000000E+00  0.00000000E+00  0.00000000E+00  0.00000000E+00  0.00000000E+00
  0.00000000E+00  0.00000000E+00  0.00000000E+00 -3.17695000E-02  0.00000000E+00
  0.00000000E+00 -9.23205000E-02  0.00000000E+00  0.00000000E+00 -1.12474590E+00
  0.00000000E+00  0.00000000E+00 -2.39807000E-02  0.00000000E+00  0.00000000E+00
  0.00000000E+00  0.00000000E+00  4.32820000E-03  0.00000000E+00  0.00000000E+00
  1.80302000E-02  0.00000000E+00  0.00000000E+00 -6.98390000E-03  0.00000000E+00
  0.00000000E+00  0.00000000E+00  0.00000000E+00  0.00000000E+00  0.00000000E+00
  0.00000000E+00  0.00000000E+00 -7.28560000E-02  0.00000000E+00  0.00000000E+00
  1.01865210E+00  0.00000000E+00 -4.11854000E-02  3.07900000E-03  0.00000000E+00
  0.00000000E+00  0.00000000E+00  0.00000000E+00  0.00000000E+00  0.00000000E+00
  0.00000000E+00 -7.28560000E-02  0.00000000E+00  0.00000000E+00  1.01865210E+00
  0.00000000E+00  4.11854000E-02  3.07900000E-03  0.00000000E+00  0.00000000E+00
  2.38462600E-01  7.93047600E-01  2.51390000E-01 -7.16347840E+00  0.00000000E+00
  5.74982000E-02  0.00000000E+00  0.00000000E+00  1.07545840E+00  0.00000000E+00
  0.00000000E+00  1.71139710E+00  0.00000000E+00 -8.04220000E-03  0.00000000E+00
  0.00000000E+00  5.21640000E-03  0.00000000E+00  2.36553200E-01  0.00000000E+00
  0.00000000E+00 -1.92837600E-01  0.00000000E+00  0.00000000E+00  0.00000000E+00
 -3.53252000E-02  0.00000000E+00  0.00000000E+00  0.00000000E+00  8.06050000E-02
 -2.19984000E-02  3.01738970E+00  6.15409200E-01 -8.12908000E-02  8.39109000E-02
  0.00000000E+00 -1.19211520E+00  7.14517100E-01  0.00000000E+00 -1.04841400E-01
  0.00000000E+00  0.00000000E+00  1.84403000E-02 -1.50850100E-01 -2.19984000E-02
  3.01738970E+00  6.15409200E-01  8.12908000E-02  8.39109000E-02  0.00000000E+00
  1.19211520E+00  7.14517100E-01  0.00000000E+00 -1.04841400E-01  0.00000000E+00
  0.00000000E+00  1.84403000E-02  1.50850100E-01  0.00000000E+00  0.00000000E+00
  0.00000000E+00  0.00000000E+00 -2.35450000E-02  0.00000000E+00  0.00000000E+00
 -1.48182200E-01  0.00000000E+00  0.00000000E+00 -1.68352440E+00  0.00000000E+00
  0.00000000E+00  0.00000000E+00  0.00000000E+00  0.00000000E+00  0.00000000E+00
 -2.10440000E-03  0.00000000E+00  0.00000000E+00  0.00000000E+00  0.00000000E+00
  6.15703000E-02  0.00000000E+00  1.00200000E-02  0.00000000E+00  0.00000000E+00
  0.00000000E+00 -8.14530000E-03  0.00000000E+00 -9.21910000E-03  9.16659800E-01
  7.24184000E-02 -6.89606000E-02 -5.89852000E-02  0.00000000E+00  6.49813000E-01
  1.03946500E+00  0.00000000E+00 -6.74950000E-03  0.00000000E+00  0.00000000E+00
 -1.11633000E-02 -9.44420000E-03  9.21910000E-03 -9.16659800E-01 -7.24184000E-02
 -6.89606000E-02  5.89852000E-02  0.00000000E+00  6.49813000E-01 -1.03946500E+00
  0.00000000E+00  6.74950000E-03  0.00000000E+00  0.00000000E+00  1.11633000E-02
 -9.44420000E-03  0.00000000E+00  0.00000000E+00  0.00000000E+00  0.00000000E+00
 -2.00990300E-01  0.00000000E+00  0.00000000E+00 -1.26730890E+00  0.00000000E+00
  0.00000000E+00 -9.18888600E-01  0.00000000E+00  0.00000000E+00  0.00000000E+00
  0.00000000E+00  0.00000000E+00  0.00000000E+00  2.15500000E-03  0.00000000E+00
  0.00000000E+00  0.00000000E+00  0.00000000E+00 -7.67928000E-02  0.00000000E+00
 -5.81820000E-03  0.00000000E+00  0.00000000E+00  0.00000000E+00 -6.66950000E-03
  0.00000000E+00  1.35137800E-01  1.51245690E+00  7.58686700E-01  7.00880000E-02
 -5.68999000E-02  0.00000000E+00 -1.47878960E+00  1.10032130E+00  0.00000000E+00
 -4.45023000E-02  0.00000000E+00  0.00000000E+00  3.50098000E-02 -8.93221000E-02
 -1.35137800E-01 -1.51245690E+00 -7.58686700E-01  7.00880000E-02  5.68999000E-02
  0.00000000E+00 -1.47878960E+00 -1.10032130E+00  0.00000000E+00  4.45023000E-02
  0.00000000E+00  0.00000000E+00 -3.50098000E-02 -8.93221000E-02 -3.24516700E-01
 -9.28402500E-01 -2.64658300E-01 -1.85275020E+00  0.00000000E+00  1.80366200E-01
  0.00000000E+00  0.00000000E+00  5.85073900E-01  0.00000000E+00  0.00000000E+00
  2.57631500E-01  0.00000000E+00 -8.27180000E-03  0.00000000E+00  0.00000000E+00
  7.28150000E-03  0.00000000E+00 -2.49831500E-01  0.00000000E+00  0.00000000E+00
  1.55889300E-01  0.00000000E+00  0.00000000E+00  0.00000000E+00  2.89298000E-02
  0.00000000E+00  0.00000000E+00  0.00000000E+00 -5.98500000E-02  1.10541300E-01
  8.75086000E-01  2.79305500E-01  1.39634300E-01 -1.04941400E-01  0.00000000E+00
 -1.04800590E+00  7.87388700E-01  0.00000000E+00  7.64820000E-03  0.00000000E+00
  0.00000000E+00 -4.59860000E-03  4.30885000E-02  1.10541300E-01  8.75086000E-01
  2.79305500E-01 -1.39634300E-01 -1.04941400E-01  0.00000000E+00  1.04800590E+00
  7.87388800E-01  0.00000000E+00  7.64820000E-03  0.00000000E+00  0.00000000E+00
 -4.59860000E-03 -4.30885000E-02  0.00000000E+00  0.00000000E+00  0.00000000E+00
  0.00000000E+00  0.00000000E+00  0.00000000E+00 -4.47280000E-03  0.00000000E+00
  0.00000000E+00  6.28925000E-02  0.00000000E+00  0.00000000E+00  7.23252900E-01
  0.00000000E+00  0.00000000E+00  1.46361000E-02  0.00000000E+00  0.00000000E+00
  0.00000000E+00  0.00000000E+00 -1.17443070E+00  0.00000000E+00  0.00000000E+00
 -1.22216000E-02  0.00000000E+00  0.00000000E+00 -8.07440000E-03  0.00000000E+00
  0.00000000E+00  0.00000000E+00  0.00000000E+00 -1.00000000E-07  0.00000000E+00
  0.00000000E+00  0.00000000E+00  3.77131000E-02  0.00000000E+00  0.00000000E+00
 -6.86419100E-01  0.00000000E+00 -1.87080000E-02 -7.62874000E-02  0.00000000E+00
  0.00000000E+00  0.00000000E+00  1.00000000E-07  0.00000000E+00  0.00000000E+00
  0.00000000E+00  3.77131000E-02  0.00000000E+00  0.00000000E+00 -6.86419100E-01
  0.00000000E+00  1.87080000E-02 -7.62874000E-02  0.00000000E+00  0.00000000E+00
  0.00000000E+00  0.00000000E+00  0.00000000E+00  0.00000000E+00  1.59542000E-02
  0.00000000E+00  0.00000000E+00  1.93050670E+00  0.00000000E+00  0.00000000E+00
  2.85183840E+00  0.00000000E+00  0.00000000E+00  0.00000000E+00  0.00000000E+00
  0.00000000E+00  0.00000000E+00 -2.01170000E-02  0.00000000E+00  0.00000000E+00
  0.00000000E+00  0.00000000E+00 -1.72297000E+00  0.00000000E+00 -1.14528700E-01
  0.00000000E+00  0.00000000E+00  0.00000000E+00 -8.84763000E-02  0.00000000E+00
  3.99115600E-01 -4.65392220E+00 -2.59534800E-01  1.76547800E-01 -1.74364000E-01
  0.00000000E+00  1.80181270E+00 -1.26738070E+00  0.00000000E+00  1.31205900E-01
  0.00000000E+00  0.00000000E+00 -9.26087000E-02  2.64096600E-01 -3.99115600E-01
  4.65392220E+00  2.59534800E-01  1.76547800E-01  1.74364000E-01  0.00000000E+00
  1.80181270E+00  1.26738070E+00  0.00000000E+00 -1.31205900E-01  0.00000000E+00
  0.00000000E+00  9.26087000E-02  2.64096600E-01  0.00000000E+00  0.00000000E+00
  0.00000000E+00  0.00000000E+00  0.00000000E+00  0.00000000E+00  0.00000000E+00
  0.00000000E+00  0.00000000E+00  0.00000000E+00  0.00000000E+00  0.00000000E+00
  0.00000000E+00  0.00000000E+00  1.50102000E-02  0.00000000E+00  0.00000000E+00
  0.00000000E+00  0.00000000E+00 -1.25832320E+00  0.00000000E+00  0.00000000E+00
  0.00000000E+00  0.00000000E+00  0.00000000E+00  0.00000000E+00  0.00000000E+00
  2.45970000E-02  0.00000000E+00  0.00000000E+00  0.00000000E+00  1.00000000E-07
  0.00000000E+00  0.00000000E+00  0.00000000E+00 -5.51053000E-02  0.00000000E+00
  0.00000000E+00  6.28686400E-01  0.00000000E+00 -6.47373000E-02 -7.78460000E-03
  0.00000000E+00  0.00000000E+00  0.00000000E+00  0.00000000E+00  0.00000000E+00
  0.00000000E+00  0.00000000E+00  5.51053000E-02  0.00000000E+00  0.00000000E+00
 -6.28686400E-01  0.00000000E+00 -6.47373000E-02  7.78460000E-03  0.00000000E+00
  0.00000000E+00 -2.16779200E-01 -5.11345700E-01 -7.29660000E-02 -2.77256840E+00
  0.00000000E+00  5.35364000E-02  0.00000000E+00  0.00000000E+00  4.52467200E-01
  0.00000000E+00  0.00000000E+00  3.75313900E-01  0.00000000E+00  3.29020000E-03
  0.00000000E+00  0.00000000E+00  8.71590000E-03  0.00000000E+00  3.01998800E-01
  0.00000000E+00  0.00000000E+00 -1.34850230E+00  0.00000000E+00  0.00000000E+00
  0.00000000E+00 -2.16695000E-02  0.00000000E+00  0.00000000E+00  0.00000000E+00
  7.89894000E-02 -2.74851700E-01  1.97883820E+00  7.75350000E-03 -1.06684700E-01
 -3.55020000E-02  0.00000000E+00 -3.34060200E-01  1.05960910E+00  0.00000000E+00
 -3.88017000E-02  0.00000000E+00  0.00000000E+00 -4.67225000E-02 -6.05726000E-02
 -2.74851700E-01  1.97883820E+00  7.75350000E-03  1.06684700E-01 -3.55020000E-02
  0.00000000E+00  3.34060200E-01  1.05960910E+00  0.00000000E+00 -3.88017000E-02
  0.00000000E+00  0.00000000E+00 -4.67225000E-02  6.05726000E-02  1.56070900E-01
  3.51888900E-01 -1.19038000E-02  6.91289080E+00  0.00000000E+00 -1.22794900E-01
  0.00000000E+00  0.00000000E+00 -9.36481600E-01  0.00000000E+00  0.00000000E+00
 -2.73352520E+00  0.00000000E+00  2.04330000E-03  0.00000000E+00  0.00000000E+00
  9.68100000E-04  0.00000000E+00 -1.42131450E+00  0.00000000E+00  0.00000000E+00
 -2.21622200E-01  0.00000000E+00  0.00000000E+00  0.00000000E+00  4.68216000E-02
  0.00000000E+00  0.00000000E+00  0.00000000E+00 -6.59266000E-02  2.13368100E-01
 -4.27115990E+00 -1.58863200E-01  5.63540000E-02 -6.07591000E-02  0.00000000E+00
  1.57642140E+00 -6.87862000E-01  0.00000000E+00  4.45887000E-02  0.00000000E+00
  0.00000000E+00 -4.73480000E-02  1.08667600E-01  2.13368100E-01 -4.27115990E+00