19
# CELL(abcABC):   78.60000    78.60000    78.60000    90.00000    90.00000    90.00000  Step:           0  Bead:       0 velocities{atomic_unit}  cell{angstrom}
       O -4.06076e-04  6.10809e-05 -1.94684e-04
       O -4.93401e-06  1.23549e-05 -4.56279e-05
       O  1.70566e-05  1.31443e-04  7.43967e-05
       O  3.90479e-04  2.56338e-04 -1.02363e-04
       H -3.26617e-04  8.09225e-04  1.46557e-04
       H -9.16949e-04  9.95716e-05  1.41339e-04
       H -5.05342e-04 -1.25695e-04 -9.02553e-06
       H  1.67910e-04 -2.59878e-04  3.99923e-04
       H -4.44014e-04 -6.35463e-04 -6.17895e-05
       H  2.85810e-04  2.98478e-04  2.13752e-04
       H -9.22632e-06 -8.98682e-04 -1.12082e-03
       H  7.65958e-04  4.40713e-04  2.36042e-04
       H -1.30890e-04 -1.32051e-03 -7.00257e-04
       O  1.43841e-04 -2.13638e-04  1.27385e-04
       H  1.73062e-03  3.06923e-04  9.17596e-04
       H -1.16701e-04  2.78954e-04  1.18014e-04
       O -2.21255e-04 -2.58361e-04  3.20206e-05
       H -4.65577e-05 -2.77817e-04  8.17877e-04
       H  8.29965e-04  1.45535e-03  6.28958e-04
19
# CELL(abcABC):   78.60000    78.60000    78.60000    90.00000    90.00000    90.00000  Step:          10  Bead:       0 velocities{atomic_unit}  cell{angstrom}
       O -3.82173e-04  1.02656e-04 -2.09668e-04
       O -5.04342e-05 -6.73278e-05 -9.55021e-05
       O  7.53164e-05 -2.98989e-05  9.94999e-05
       O  3.61304e-04  2.67559e-04 -1.30593e-04
       H -6.47066e-04  1.27683e-04  4.91249e-04
       H -9.57264e-04  9.20593e-05  8.23437e-05
       H  9.32945e-05  4.42310e-04  3.99030e-04
       H  1.75760e-04 -6.06871e-05  9.91313e-05
       H -2.17492e-05 -3.81744e-04  7.83560e-04
       H  2.51418e-04 -1.63527e-05 -1.92905e-04
       H  1.17685e-04  7.03828e-05 -3.84780e-04
       H -1.67043e-04  4.79403e-04  1.27593e-04
       H -1.46071e-04  6.78569e-04 -1.09676e-03
       O  2.24764e-04 -1.10548e-04  1.60628e-04
       H  3.47677e-04 -1.55369e-03  1.13662e-04
       H -1.39267e-05  4.60302e-04  2.66106e-04
       O -2.40198e-04 -2.12392e-04  1.38676e-04
       H  6.46468e-05 -5.29832e-04 -4.88895e-04
       H  1.08394e-03  9.84498e-04  3.87313e-04
19
# CELL(abcABC):   78.60000    78.60000    78.60000    90.00000    90.00000    90.00000  Step:          20  Bead:       0 velocities{atomic_unit}  cell{angstrom}
       O -3.82251e-04  7.71156e-05 -1.73257e-04
       O  2.42678e-06 -5.87637e-05 -9.95475e-05
       O  8.32022e-05  6.75741e-05  9.62208e-07
       O  3.90099e-04  2.61766e-04 -1.11702e-04
       H -6.56347e-04  5.08046e-04  6.26433e-05
       H -9.35075e-04  4.30748e-05  1.25498e-04
       H -6.63412e-04 -5.19408e-05 -1.67633e-04
       H  9.90417e-06  6.32230e-05 -3.82375e-04
       H -3.64771e-04 -3.74416e-04  3.99350e-04
       H  1.26280e-05  2.77275e-04 -9.49792e-05
       H  3.33019e-04  7.62127e-04  4.33362e-04
       H  2.38257e-04 -3.09264e-04  3.83092e-04
       H -8.48336e-04 -5.25798e-04  1.73167e-04
       O  1.67309e-04 -2.03644e-04  1.37341e-04
       H  1.23305e-03 -1.90403e-04  6.79104e-04
       H -5.24879e-05  4.28235e-04 -1.00752e-04
       O -2.00078e-04 -2.16591e-04  1.40427e-04
       H  2.48366e-04 -5.38784e-04  5.29016e-04
       H  4.81562e-04  1.06014e-03 -3.60460e-04
19
# CELL(abcABC):   78.60000    78.60000    78.60000    90.00000    90.00000    90.00000  Step:          30  Bead:       0 velocities{atomic_unit}  cell{angstrom}
       O -3.69176e-04  8.43557e-05 -1.42819e-04
       O -5.38581e-05 -3.67717e-05 -9.13018e-05
       O  2.58999e-05 -5.15694e-05  4.15923e-05
       O  3.35435e-04  2.89648e-04 -1.22949e-04
       H -7.74820e-04  3.35054e-04  9.36565e-05
       H -8.14771e-04  1.96764e-04 -5.59127e-05
       H  6.56541e-04  2.57931e-04 -7.01441e-04
       H -4.49354e-04  4.34709e-05 -4.69489e-04
       H  3.26748e-05 -4.70482e-04  5.80133e-04
       H  2.40037e-04  1.58755e-04 -9.71040e-05
       H -6.72706e-05 -3.15922e-04  2.64665e-04
       H -8.62545e-05  3.74022e-04 -8.76188e-05
       H  6.38254e-04  7.19819e-04  2.55966e-04
       O  1.75212e-04 -1.92062e-04  1.01489e-04
       H  1.01859e-03 -3.04623e-04  6.73055e-04
       H -7.54233e-05  3.86975e-04  2.65150e-04
       O -1.27269e-04 -2.10182e-04  1.60741e-04
       H -3.34544e-04 -2.41649e-04  1.90374e-04
       H  2.34693e-04  7.10408e-04 -6.62157e-05
19
# CELL(abcABC):   78.60000    78.60000    78.60000    90.00000    90.00000    90.00000  Step:          40  Bead:       0 velocities{atomic_unit}  cell{angstrom}
       O -3.54894e-04  1.09749e-04 -1.36865e-04
       O -3.39100e-05  1.65195e-05 -6.25848e-05
       O  1.29733e-05  2.84216e-05  1.41984e-05
       O  2.91823e-04  2.99375e-04 -1.27647e-04
       H -8.54827e-04  3.90114e-05  1.11938e-04
       H -6.44353e-04  2.66302e-04  3.21276e-05
       H  4.00468e-05 -5.05715e-04 -1.25634e-03
       H -7.86095e-04  8.16397e-05 -3.67706e-04
       H  3.90911e-04 -4.80644e-04  6.09899e-04
       H  4.21935e-04  1.91758e-04 -3.31502e-05
       H -1.45182e-04 -6.94459e-04 -9.94753e-05
       H  4.04058e-04 -5.49402e-06 -1.86174e-04
       H  6.23846e-04 -4.63730e-04  8.69278e-04
       O  1.89876e-04 -9.54331e-05  1.33575e-04
       H  7.37760e-04 -1.44761e-03  5.10055e-04
       H -7.19000e-05  1.65223e-04 -1.42458e-04
       O -7.19917e-05 -1.87868e-04  1.75809e-04
       H -9.07091e-04 -1.39119e-04 -2.18147e-04
       H  2.53151e-04  2.82244e-04  2.25939e-04
19
# CELL(abcABC):   78.60000    78.60000    78.60000    90.00000    90.00000    90.00000  Step:          50  Bead:       0 velocities{atomic_unit}  cell{angstrom}
       O -3.31492e-04  1.00813e-04 -1.12309e-04
       O -1.28733e-04 -7.88643e-05 -1.24844e-04
       O  1.00319e-04 -7.83713e-05  2.36465e-05
       O  3.29015e-04  2.91687e-04 -1.19112e-04
       H -7.14940e-04  5.62925e-04 -1.93510e-04
       H -6.14349e-04  2.11450e-04 -6.06980e-05
       H  2.92381e-04  1.43550e-05 -3.15460e-04
       H -6.54177e-04 -2.75774e-05 -4.03072e-04
       H -8.55445e-05 -4.69583e-04  3.97490e-04
       H  2.00919e-04  3.85881e-04  7.85214e-06
       H -8.11030e-06  5.88580e-04  2.85848e-04
       H -3.18484e-04 -3.53083e-04 -1.08569e-04
       H  2.85475e-04  5.95822e-04  3.76835e-04
       O  1.63985e-04 -2.20115e-04  1.28331e-04
       H  1.17877e-03  1.03377e-03  4.24405e-04
       H -6.66302e-05  8.85191e-06  8.00908e-05
       O -5.16576e-05 -1.53307e-04  1.45324e-04
       H -4.97267e-04 -2.31659e-04  8.90623e-04
       H -2.90720e-04 -1.26713e-04 -4.45897e-04
19
# CELL(abcABC):   78.60000    78.60000    78.60000    90.00000    90.00000    90.00000  Step:          60  Bead:       0 velocities{atomic_unit}  cell{angstrom}
       O -2.98764e-04  1.70831e-04 -1.25124e-04
       O -1.61518e-04 -9.02714e-05 -1.60196e-04
       O  1.15817e-04 -3.05941e-05  7.60712e-06
       O  2.87425e-04  2.54638e-04 -1.27417e-04
       H -7.12396e-04 -1.76770e-04  3.45543e-05
       H -5.35163e-04  1.99108e-04 -1.24298e-04
       H -5.74492e-04 -2.92187e-04  2.82367e-04
       H -1.97944e-04 -8.65389e-05  5.89104e-07
       H  3.62815e-04  3.11612e-04  7.52895e-04
       H  2.75765e-04  4.05419e-05 -3.01641e-04
       H  2.21987e-04  6.91771e-04  1.33896e-04
       H -1.13000e-04 -6.07086e-04  2.56973e-04
       H  4.55769e-05 -9.74026e-05  1.50868e-04
       O  1.83954e-04 -2.78017e-05  1.50875e-04
       H  8.90545e-04 -1.46083e-03 -9.36087e-05
       H -9.82941e-05 -1.44517e-04  4.28989e-04
       O -9.59671e-05 -8.58732e-05  2.22108e-04
       H -4.87289e-04 -7.32630e-04 -4.32416e-04
       H  4.30658e-04 -6.75750e-04 -5.78867e-04
19
# CELL(abcABC):   78.60000    78.60000    78.60000    90.00000    90.00000    90.00000  Step:          70  Bead:       0 velocities{atomic_unit}  cell{angstrom}
       O -2.88525e-04  1.44980e-04 -1.11747e-04
       O -2.59471e-04 -5.91071e-05 -1.50385e-04
       O  7.89424e-05 -2.26947e-05  6.60675e-05
       O  2.94937e-04  2.21134e-04 -1.17563e-04
       H -5.48226e-04  4.55742e-04 -2.13131e-04
       H -2.93619e-04  3.06723e-04  4.91642e-05
       H  1.22355e-04 -1.54308e-05  2.89469e-04
       H  3.82173e-04 -4.99597e-04  4.16878e-04
       H -2.34230e-04  8.39209e-05  1.19686e-04
       H  4.33793e-04  5.65624e-04  6.15233e-05
       H  1.41865e-04 -6.25024e-04 -7.57116e-04
       H  9.43610e-05  9.51926e-05  2.08267e-04
       H  6.33578e-04 -5.31165e-04 -3.47609e-04
       O  1.70132e-04 -1.18376e-04  2.02999e-04
       H  9.86648e-04  9.99313e-04 -7.48297e-05
       H -1.10742e-05 -7.21835e-04 -2.67416e-04
       O -2.44870e-05 -1.16061e-04  9.85880e-05
       H -6.38732e-04 -4.63039e-04  1.03774e-03
       H -6.16961e-04 -4.42106e-04 -3.31501e-04
19
# CELL(abcABC):   78.60000    78.60000    78.60000    90.00000    90.00000    90.00000  Step:          80  Bead:       0 velocities{atomic_unit}  cell{angstrom}
       O -2.69694e-04  1.72319e-04 -8.21060e-05
       O -1.78416e-04 -6.52646e-05 -2.22007e-04
       O  8.61380e-05 -7.92559e-05  1.14534e-04
       O  2.06418e-04  1.99822e-04 -9.93731e-05
       H -5.37854e-04  2.31624e-05 -1.54906e-04
       H -1.93962e-04  3.89230e-04 -3.37087e-04
       H -7.12936e-04 -7.25711e-05  2.00457e-04
       H  5.32411e-04 -2.83481e-04  7.84056e-04
       H  3.09614e-04  5.54845e-04  2.53355e-05
       H  9.68841e-04  2.55161e-04 -2.06420e-04
       H -3.24966e-04 -7.81458e-04 -6.48269e-04
       H  1.23811e-04  2.64502e-04  3.58300e-04
       H  2.53420e-04  4.63211e-05 -4.80639e-04
       O  1.84995e-04 -3.49001e-05  1.45005e-04
       H  9.67833e-04 -1.38572e-04 -3.76260e-04
       H -2.10016e-04 -6.14501e-04  9.21756e-04
       O -2.83505e-05 -9.68570e-05  1.07218e-04
       H -1.31613e-03 -4.94740e-04  2.91061e-04
       H  1.22622e-04 -6.69573e-04  2.05621e-04
19
# CELL(abcABC):   78.60000    78.60000    78.60000    90.00000    90.00000    90.00000  Step:          90  Bead:       0 velocities{atomic_unit}  cell{angstrom}
       O -2.71977e-04  1.73005e-04 -8.45225e-05
       O -1.56029e-04 -1.54669e-04 -3.13289e-04
       O  1.14362e-04 -6.42640e-05  9.25601e-05
       O  2.29873e-04  1.61362e-04 -8.80485e-05
       H -4.90951e-04 -6.36569e-07 -3.09311e-04
       H  9.01245e-05  4.51359e-04  3.73349e-05
       H -5.22735e-04  6.55344e-04  4.43614e-04
       H  5.65554e-04 -1.89822e-04  2.73147e-04
       H -9.40604e-05  7.39272e-04 -1.89173e-04
       H  7.69564e-04  5.56319e-04 -1.06490e-04
       H -5.49185e-04  3.51660e-04  1.59924e-04
       H  2.19527e-04 -8.43300e-05  4.35806e-04
       H -8.77464e-04 -4.52063e-04  5.07397e-04
       O  1.68477e-04 -1.20965e-05  2.31418e-04
       H  1.02099e-03 -1.98404e-04 -4.74029e-04
       H  4.03069e-05 -7.59283e-04 -5.33823e-04
       O -5.29046e-06 -9.57263e-05  1.10826e-04
       H -9.28262e-04 -4.28749e-04  7.55705e-04
       H -5.04005e-04 -7.61495e-04 -1.89677e-04
19
# CELL(abcABC):   78.60000    78.60000    78.60000    90.00000    90.00000    90.00000  Step:         100  Bead:       0 velocities{atomic_unit}  cell{angstrom}
       O -2.72399e-04  1.66305e-04 -3.17001e-05
       O -1.39365e-04 -1.15143e-04 -2.62278e-04
       O  5.38330e-05 -1.78875e-04  1.56294e-04
       O  2.39270e-04  1.42985e-04 -5.60109e-05
       H -3.86752e-04  2.30256e-04 -5.08240e-04
       H  1.44346e-04  4.77653e-04 -3.86561e-04
       H -8.24293e-04 -1.19196e-05 -4.65390e-04
       H  3.28327e-04  1.02058e-04 -9.22663e-05
       H -2.58682e-04  1.08584e-03 -2.59922e-04
       H  6.19164e-04  4.31573e-04 -3.77700e-04
       H  4.03843e-06  9.40040e-05 -1.65676e-05
       H  8.10192e-05  2.74030e-04  2.87204e-05
       H -2.23660e-04  8.80866e-04  2.81194e-04
       O  2.07787e-04 -8.27451e-05  1.27510e-04
       H  5.44212e-04  1.10905e-03 -6.53945e-05
       H -1.49695e-04 -7.27379e-04  4.50963e-04
       O -1.67131e-05 -9.90930e-05  1.28185e-04
       H -4.50669e-04 -3.32336e-04  9.32227e-04
       H -5.76788e-04 -9.69722e-04 -5.05215e-04
19
# CELL(abcABC):   78.60000    78.60000    78.60000    90.00000    90.00000    90.00000  Step:         110  Bead:       0 velocities{atomic_unit}  cell{angstrom}
       O -2.89623e-04  2.10612e-04 -5.02620e-05
       O -2.26797e-04 -7.82067e-05 -2.11471e-04
       O -1.03288e-05 -5.62112e-05  1.10675e-04
       O  1.80743e-04  1.48683e-04 -3.75382e-05
       H -1.47766e-04 -2.44438e-04 -2.58166e-04
       H  2.67350e-04  5.17316e-04 -2.75137e-04
       H  4.80593e-04  2.14668e-04 -7.61561e-04
       H -5.68953e-05 -4.64623e-05 -3.45554e-04
       H  4.18619e-04  1.05406e-03 -2.36770e-04
       H  8.37810e-04  3.66000e-04 -4.89113e-04
       H  5.45662e-04 -1.09389e-03 -3.06922e-04
       H  5.90793e-04  6.23369e-05 -1.79294e-04
       H  2.98212e-05 -5.86570e-04  1.07315e-03
       O  1.63141e-04  4.58975e-05  1.73604e-04
       H  1.09974e-03 -7.30548e-04 -6.11604e-04
       H -8.37503e-05 -7.50348e-04  8.42068e-05
       O  2.20718e-05 -1.21336e-04  1.51207e-04
       H -1.22682e-03 -2.19104e-04  3.77516e-04
       H -2.02827e-04 -9.15118e-04 -2.32946e-04
19
# CELL(abcABC):   78.60000    78.60000    78.60000    90.00000    90.00000    90.00000  Step:         120  Bead:       0 velocities{atomic_unit}  cell{angstrom}
       O -3.02576e-04  2.02200e-04 -5.60284e-05
       O -1.42111e-04 -5.29473e-05 -2.01253e-04
       O  1.66438e-05 -1.75970e-04  1.56673e-04
       O  1.92359e-04  1.67409e-04 -1.09397e-05
       H  5.04164e-05  2.59126e-04 -5.44721e-04
       H  2.18896e-04  2.94508e-04 -1.88242e-04
       H -3.39460e-04 -5.26513e-04 -5.85512e-04
       H -4.98372e-04 -6.17725e-05 -6.25152e-04
       H -3.11767e-05  5.51578e-04 -6.84575e-04
       H  1.10518e-03  6.91656e-04 -3.24801e-04
       H  5.36236e-04 -5.22874e-04  7.15290e-05
       H -2.60650e-04 -9.64885e-05 -2.32174e-04
       H  4.02713e-04  9.80930e-04  2.48057e-04
       O  2.03515e-04 -7.97015e-05  1.53833e-04
       H  1.91564e-04  1.19373e-03  2.35539e-04
       H  1.24101e-04 -5.43033e-04 -5.85651e-04
       O  1.53928e-06 -2.27142e-04  7.46466e-05
       H -4.07472e-04  5.38660e-04  1.28934e-03
       H -6.05797e-04 -1.22113e-04  7.02674e-05
19
# CELL(abcABC):   78.60000    78.60000    78.60000    90.00000    90.00000    90.00000  Step:         130  Bead:       0 velocities{atomic_unit}  cell{angstrom}
       O -3.00465e-04  2.48782e-04 -7.74806e-05
       O -1.45048e-04 -1.38619e-04 -2.26088e-04
       O  6.40525e-05 -8.44192e-05  5.64477e-05
       O  1.64396e-04  1.98464e-04 -4.62291e-06
       H  2.29148e-04 -1.25093e-04 -2.66639e-04
       H -4.84429e-05  2.09625e-05 -4.74092e-04
       H  2.31014e-04  6.27350e-05  2.22829e-04
       H -4.48155e-04 -6.76388e-05 -6.76963e-04
       H  7.08094e-04  7.32422e-04 -2.61693e-04
       H  8.72336e-04  4.90895e-05 -7.17373e-04
       H -4.25450e-05  6.66244e-04  3.92555e-04
       H -7.72670e-05 -8.92314e-04  1.06712e-04
       H -3.02654e-04 -2.13515e-04  1.19414e-03
       O  1.98154e-04  2.22158e-05  9.70861e-05
       H  7.75299e-04 -1.88735e-04 -3.44439e-04
       H -4.17270e-04 -7.40194e-04  8.88064e-04
       O -2.58573e-05 -1.34443e-04  1.35505e-04
       H -9.11355e-04 -2.69803e-04  3.89633e-04
       H  1.42427e-04 -8.11651e-04 -1.48706e-04
19
# CELL(abcABC):   78.60000    78.60000    78.60000    90.00000    90.00000    90.00000  Step:         140  Bead:       0 velocities{atomic_unit}  cell{angstrom}
       O -3.27534e-04  2.42002e-04 -1.23034e-04
       O -1.00732e-04 -5.85352e-05 -1.29424e-04
       O  5.35493e-05 -1.53676e-04  1.19896e-04
       O  2.10607e-04  1.47746e-04  5.63276e-06
       H  3.40883e-04  2.92531e-05 -3.25671e-04
       H  1.48781e-04 -8.37090e-05  3.18994e-05
       H -3.22599e-04 -6.48201e-04 -2.39936e-04
       H -1.51598e-04 -8.79172e-05  2.78218e-05
       H  1.51528e-04  7.95801e-04 -5.01313e-04
       H  6.98689e-04  6.98764e-04 -5.50803e-04
       H -4.84694e-04  2.21953e-04 -3.74822e-04
       H -4.00547e-04 -3.96909e-04 -8.62664e-05
       H  7.52390e-04  4.45172e-04 -1.97330e-04
       O  1.67365e-04 -4.13996e-05  2.07124e-04
       H  4.32679e-04  2.99535e-04  2.04095e-05
       H  3.24401e-04 -8.48332e-05 -1.15073e-03
       O -7.02883e-05 -1.69222e-04  1.06390e-04
       H  2.83044e-04 -6.60946e-04  6.19125e-04
       H -7.08919e-04 -2.78927e-06 -2.34115e-04
19
# CELL(abcABC):   78.60000    78.60000    78.60000    90.00000    90.00000    90.00000  Step:         150  Bead:       0 velocities{atomic_unit}  cell{angstrom}
       O -3.17385e-04  2.38507e-04 -1.03861e-04
       O -1.52919e-04 -4.26198e-05 -7.59914e-05
       O  3.56420e-05 -4.79731e-05  1.15361e-05
       O  1.85244e-04  1.97050e-04 -1.61689e-06
       H  4.55696e-04  6.23450e-05 -2.80233e-04
       H -1.88745e-04 -1.99026e-04 -4.97547e-04
       H  4.09725e-04  1.49009e-04 -1.50172e-04
       H -7.32898e-05 -3.30318e-04  5.71859e-04
       H  5.02376e-04  5.60426e-04 -2.89700e-04
       H  7.67781e-04 -6.30407e-05 -5.86406e-04
       H -3.32420e-04 -5.71344e-04 -6.26432e-04
       H  1.02190e-04 -3.32656e-04  3.53122e-04
       H  7.94137e-04 -8.49792e-04  1.82956e-04
       O  2.26561e-04 -1.10159e-05  8.01477e-05
       H  2.08318e-04  4.33843e-04  2.64666e-04
       H -4.09941e-04 -6.24227e-04  6.87588e-04
       O -1.35689e-04 -1.78742e-04  9.34606e-05
       H -1.38348e-04 -6.53546e-04  3.40403e-04
       H  4.19188e-04 -4.53152e-05 -2.84386e-05
19
# CELL(abcABC):   78.60000    78.60000    78.60000    90.00000    90.00000    90.00000  Step:         160  Bead:       0 velocities{atomic_unit}  cell{angstrom}
       O -3.23816e-04  2.46009e-04 -1.50099e-04
       O -7.60318e-05 -5.75019e-05 -6.39387e-05
       O  7.97279e-05 -9.79217e-05 -6.67619e-06
       O  1.71603e-04  1.92805e-04 -2.04287e-05
       H  3.19951e-04 -2.52304e-04 -1.26583e-04
       H -4.57843e-05 -2.86931e-04 -1.33591e-04
       H -8.72189e-04  1.36989e-04  5.21591e-06
       H -4.62064e-05 -1.68313e-04  4.64594e-04
       H  4.83692e-04  2.07070e-04 -2.41838e-04
       H  1.01789e-03  1.36061e-04 -2.68062e-04
       H  7.18523e-05  9.93506e-05  1.20859e-04
       H -3.02357e-04 -1.41705e-04  7.98202e-04
       H  3.52868e-04 -1.58739e-04 -6.70494e-04
       O  1.72510e-04  5.75350e-06  1.69568e-04
       H  6.97595e-04 -5.45473e-04 -2.40200e-05
       H  6.56611e-05  7.62107e-05 -4.61746e-04
       O -1.53143e-04 -2.40677e-04  7.43705e-05
       H -3.03827e-04 -5.79489e-04  2.11383e-04
       H  6.10901e-04  7.07948e-04  2.81698e-04
19
# CELL(abcABC):   78.60000    78.60000    78.60000    90.00000    90.00000    90.00000  Step:         170  Bead:       0 velocities{atomic_unit}  cell{angstrom}
       O -3.23940e-04  2.22162e-04 -1.36793e-04
       O -1.16513e-04 -1.13100e-04 -2.65285e-05
       O  8.81740e-05 -8.89295e-05 -5.28144e-05
       O  2.05361e-04  1.69955e-04  2.02914e-06
       H  3.59683e-04 -3.14298e-05 -3.98952e-04
       H -1.94237e-04 -3.57804e-04 -1.92545e-04
       H -2.37992e-04  7.32437e-04  3.67020e-05
       H  2.79385e-04 -8.48559e-06 -2.09033e-05
       H  1.84580e-04  3.49650e-04 -3.92076e-04
       H  8.11766e-04  1.30012e-04 -3.22254e-04
       H -9.13621e-05  7.30521e-04  3.63216e-04
       H  2.63366e-05 -2.24319e-05  7.41345e-04
       H -1.80829e-04 -3.44431e-04 -2.51349e-04
       O  2.41091e-04 -6.89423e-05  9.97985e-05
       H -1.33622e-04  3.53317e-04  7.34654e-04
       H -3.77148e-05  2.49158e-04 -2.05275e-04
       O -1.87123e-04 -2.34583e-04  9.04534e-05
       H  6.40354e-04 -7.14547e-04  1.76110e-04
       H  4.90908e-05  7.34668e-04  1.09989e-04
19
# CELL(abcABC):   78.60000    78.60000    78.60000    90.00000    90.00000    90.00000  Step:         180  Bead:       0 velocities{atomic_unit}  cell{angstrom}
       O -3.06252e-04  2.25370e-04 -1.42421e-04
       O -8.42018e-05 -1.02598e-05  7.15501e-05
       O  4.50055e-05 -8.71062e-05 -2.01328e-05
       O  2.11904e-04  1.64958e-04 -1.87689e-06
       H  1.41668e-04 -3.45764e-04 -1.61768e-04
       H -4.19684e-04 -2.70045e-04 -4.29468e-04
       H -3.32153e-04 -1.97522e-04 -8.68451e-04
       H  5.16256e-05  2.24190e-04 -9.46022e-05
       H  6.27028e-04  5.18616e-04  5.48034e-05
       H  3.17392e-04 -1.33624e-04 -4.90300e-04
       H -3.50430e-04 -2.48132e-04 -1.63186e-04
       H  4.95913e-04  4.16651e-04  1.63068e-05
       H -1.49973e-07 -4.02856e-04 -1.96773e-04
       O  2.55811e-04 -4.62014e-06  4.85865e-05
       H  4.67861e-04 -6.95169e-04  3.78624e-04
       H -7.51859e-04  2.14511e-04  8.25791e-04
       O -1.95029e-04 -1.51022e-04  1.58088e-04
       H  3.33651e-04 -1.38897e-03 -4.38759e-04
       H  5.74114e-04  1.28382e-04 -2.38511e-04
19
# CELL(abcABC):   78.60000    78.60000    78.60000    90.00000    90.00000    90.00000  Step:         190  Bead:       0 velocities{atomic_unit}  cell{angstrom}
       O -3.34426e-04  2.07863e-04 -1.80446e-04
       O -1.11521e-04  6.81508e-06  6.72877e-05
       O  4.80458e-05 -1.22726e-04 -1.29520e-06
       O  2.37962e-04  1.37683e-04  1.52226e-05
       H  2.26657e-04 -1.39071e-04 -2.43880e-04
       H -1.01433e-04 -2.67084e-04  6.79885e-05
       H  3.50428e-04  2.65215e-04 -5.83502e-04
       H -5.04077e-04 -8.79189e-05 -3.09198e-04
       H  3.68160e-05  1.99388e-04 -2.49702e-04
       H  6.16642e-04  4.88271e-04 -2.12461e-04
       H -2.21488e-04 -7.36013e-04  1.16772e-04
       H  2.62433e-04  6.65522e-04 -4.52487e-04
       H -9.28756e-05  1.41014e-04 -3.00300e-04
       O  2.17495e-04 -7.94398e-05  1.23790e-04
       H -9.22746e-05 -2.12124e-04  9.09331e-04
       H  5.18844e-04  9.28805e-04 -1.08231e-03
       O -1.43782e-04 -2.63083e-04  1.07902e-04
       H  8.14146e-04 -2.56516e-04  1.47765e-04
       H -4.45115e-04  8.02419e-04  8.93705e-05
19
# CELL(abcABC):   78.60000    78.60000    78.60000    90.00000    90.00000    90.00000  Step:         200  Bead:       0 velocities{atomic_unit}  cell{angstrom}
       O -2.90780e-04  1.92189e-04 -1.71708e-04
       O -7.73340e-05 -6.82002e-07  2.05516e-05
       O  4.76140e-05 -5.32782e-05 -6.62687e-05
       O  2.53409e-04  2.07192e-04 -4.72105e-06
       H  9.56990e-05 -1.33252e-04 -1.13519e-04
       H -6.61523e-04 -8.29453e-05 -4.99376e-04
       H -4.20583e-04 -3.45433e-04  2.01882e-04
       H -8.08224e-04  1.56837e-05 -6.01086e-04
       H  3.57497e-04 -2.50756e-04  2.15519e-04
       H  2.69585e-04 -3.23329e-04 -6.65369e-05
       H  2.85430e-04  1.52900e-04  7.59557e-04
       H  5.18428e-04 -1.15436e-04 -4.73020e-04
       H -8.31679e-04 -3.30941e-04  4.26917e-04
       O  3.08325e-04 -4.18068e-05 -1.34875e-05
       H -3.38002e-05 -3.57578e-04  9.03461e-04
       H -9.59170e-04  5.41846e-04  9.59216e-04
       O -1.32784e-04 -2.41635e-04  1.33909e-04
       H -2.69692e-04 -4.26970e-04 -2.38909e-04
       H  7.36577e-04  6.72397e-04  1.40614e-04
19
# CELL(abcABC):   78.60000    78.60000    78.60000    90.00000    90.00000    90.00000  Step:         210  Bead:       0 velocities{atomic_unit}  cell{angstrom}
       O -2.93791e-04  1.84308e-04 -2.16488e-04
       O -1.55072e-04 -4.39651e-05  1.73472e-05
       O  2.78976e-05 -1.19173e-04  5.91192e-06
       O  2.82210e-04  1.33852e-04  2.82785e-05
       H -8.20697e-05 -4.26692e-05 -1.46024e-04
       H -3.49067e-04 -9.77369e-05  1.46721e-04
       H  4.40009e-04 -1.23987e-04  3.02104e-04
       H -4.88772e-04  1.56699e-04 -6.04252e-04
       H  1.28991e-04 -1.42684e-04  3.84845e-05
       H  2.85389e-04  5.11824e-04 -1.26707e-04
       H  3.53422e-04  2.03709e-04  5.71597e-04
       H -1.63245e-04  9.89048e-05 -6.92891e-04
       H -1.57411e-04  6.15449e-04 -4.72614e-04
       O  1.93557e-04 -3.70673e-05  1.05151e-04
       H  1.08015e-05 -4.51242e-04  8.66775e-04
       H  6.21801e-04  8.27184e-04 -9.56311e-04
       O -8.37536e-05 -2.38102e-04  1.32255e-04
       H  2.91776e-04 -6.49254e-05 -1.33115e-04
       H -4.32059e-04  4.16610e-04  5.61130e-05
19
# CELL(abcABC):   78.60000    78.60000    78.60000    90.00000    90.00000    90.00000  Step:         220  Bead:       0 velocities{atomic_unit}  cell{angstrom}
       O -2.70691e-04  1.39663e-04 -1.90824e-04
       O -1.16505e-04  1.98836e-05  4.12994e-05
       O -3.19673e-05  5.86009e-05 -2.78241e-05
       O  3.23319e-04  1.15770e-04  5.21557e-05
       H -1.24395e-04  7.34013e-05 -2.05153e-04
       H -5.26126e-04  3.20298e-04 -1.39620e-04
       H  1.17244e-05 -7.64593e-04 -3.65043e-04
       H -1.92590e-04  1.13534e-04 -1.19704e-04
       H  2.18354e-04  6.88572e-05  9.17189e-05
       H -2.17120e-04  2.20341e-04 -2.98134e-04
       H -6.45011e-05 -6.75466e-04 -2.29379e-04
       H  3.23560e-04 -3.59573e-04 -4.42616e-04
       H  2.27322e-05 -1.09444e-03  1.70321e-04
       O  2.31081e-04 -3.99145e-05  4.83777e-05
       H -1.41983e-04  8.94720e-05  6.96081e-04
       H -1.22074e-04  5.74336e-04  1.59185e-04
       O -1.08611e-04 -1.81435e-04  1.53332e-04
       H  4.83606e-04 -1.32866e-04 -2.82119e-04
       H -9.38270e-05 -2.20136e-04 -2.50111e-04
19
# CELL(abcABC):   78.60000    78.60000    78.60000    90.00000    90.00000    90.00000  Step:         230  Bead:       0 velocities{atomic_unit}  cell{angstrom}
       O -2.52413e-04  1.02557e-04 -1.98030e-04
       O -1.01172e-04 -4.33676e-05 -2.43190e-05
       O -2.45327e-05 -5.61382e-05  3.97719e-05
       O  3.17582e-04  1.09931e-04  3.44453e-05
       H -2.44555e-04  1.17915e-04 -1.02896e-04
       H -4.12736e-04  6.85382e-04 -6.55682e-05
       H  1.91984e-04  1.46076e-04 -1.84482e-04
       H -1.82743e-04 -1.80806e-04  1.78228e-04
       H  3.04746e-04 -1.37519e-04  2.86126e-04
       H -7.88358e-05  1.08589e-04 -6.60800e-05
       H -5.52298e-04 -2.00767e-04 -1.28257e-04
       H -4.66420e-04 -1.26467e-04 -8.43775e-05
       H  5.37535e-04  4.82501e-04 -8.62741e-04
       O  1.95962e-04  1.47434e-06  4.83036e-05
       H  1.14486e-04 -1.99271e-04  4.56892e-04
       H -1.51890e-04  5.19813e-04  3.91918e-04
       O -7.70635e-05 -1.67628e-04  1.29946e-04
       H -1.81240e-04 -1.53006e-04 -3.42636e-04
       H  1.95559e-04 -2.18433e-04  4.58049e-05
19
# CELL(abcABC):   78.60000    78.60000    78.60000    90.00000    90.00000    90.00000  Step:         240  Bead:       0 velocities{atomic_unit}  cell{angstrom}
       O -2.31258e-04  7.32410e-05 -2.12319e-04
       O -4.54562e-05 -9.81028e-05 -1.03801e-04
       O -2.67090e-05  4.31249e-05 -4.51292e-05
       O  3.14753e-04  7.18836e-05  2.94903e-05
       H -3.80689e-04  2.45149e-04 -2.43013e-04
       H -3.36883e-04  8.62452e-04  3.04376e-04
       H -7.46261e-04  2.71011e-04  1.61318e-04
       H  4.15627e-05 -2.35952e-04  3.06531e-04
       H -3.83053e-05 -3.62845e-04  1.54193e-04
       H  3.43167e-04  4.26752e-04  2.50413e-04
       H -3.22864e-04  9.66959e-04  1.80994e-04
       H -2.59194e-04 -3.82684e-04  6.93539e-04
       H -1.47625e-04 -9.83281e-04  2.41927e-04
       O  1.11961e-04  2.53355e-05  1.17958e-04
       H  3.96801e-05  8.90785e-05  2.83792e-04
       H  9.81416e-04  1.06038e-04 -5.90240e-04
       O -2.12126e-05 -2.07437e-04  4.35479e-05
       H -3.21943e-04  5.08861e-04  3.62818e-04
       H -4.72398e-04 -5.19025e-05  5.95843e-04
19
# CELL(abcABC):   78.60000    78.60000    78.60000    90.00000    90.00000    90.00000  Step:         250  Bead:       0 velocities{atomic_unit}  cell{angstrom}
       O -1.77660e-04  6.43329e-05 -1.64748e-04
       O -9.08684e-05 -1.07038e-04 -1.26243e-04
       O -1.12579e-04 -6.13567e-05  5.06034e-05
       O  3.07326e-04  6.31270e-05  2.10450e-05
       H -5.89129e-04  2.49478e-04 -3.56179e-04
       H -7.87197e-04  9.67853e-04 -3.00995e-04
       H -2.21843e-04  3.62703e-04 -1.22584e-04
       H  6.15894e-04 -2.59807e-04  4.91058e-04
       H  3.55481e-04  6.77780e-05  4.12958e-04
       H -2.42507e-05 -3.34671e-04  2.19943e-04
       H  1.42679e-05  5.30200e-04 -2.52026e-04
       H -2.17581e-04  7.77756e-05  8.82464e-04
       H  6.21127e-04  6.50195e-04 -5.06044e-04
       O  1.74988e-04  3.72144e-05  5.90422e-06
       H  2.21669e-04  4.87043e-05 -5.52442e-05
       H -5.23579e-04  3.07161e-04  1.41557e-03
       O -6.98334e-05 -1.16994e-04  1.03650e-04
       H -5.71715e-04 -8.03265e-05 -2.97921e-04
       H  6.08842e-04 -6.70898e-04  2.11721e-04
19
# CELL(abcABC):   78.60000    78.60000    78.60000    90.00000    90.00000    90.00000  Step:         260  Bead:       0 velocities{atomic_unit}  cell{angstrom}
       O -1.85393e-04  5.65651e-05 -2.02110e-04
       O -8.07674e-05 -6.97778e-05 -1.26708e-04
       O -1.11137e-04  4.05904e-05  2.94006e-05
       O  3.17678e-04 -3.23529e-05  4.42985e-05
       H -6.43529e-04  2.92830e-04 -3.85053e-04
       H -4.87657e-04  1.04370e-03  2.74159e-04
       H -1.65785e-04 -1.14793e-04 -4.63869e-04
       H  5.90468e-04  2.24266e-06  7.87473e-04
       H -4.19595e-05  3.77081e-04  1.15509e-04
       H  7.20398e-05  5.14077e-04  2.70608e-04
       H  7.67238e-05 -6.05321e-04 -7.93575e-04
       H -1.76257e-04  3.72698e-04  8.83396e-04
       H  3.82276e-04 -6.89821e-04  4.44570e-04
       O  4.39621e-05  8.12299e-05  1.40729e-04
       H  1.99149e-04  1.45289e-04 -2.05196e-04
       H  1.37097e-03 -2.59291e-04 -6.93276e-04
       O -2.05116e-05 -9.96861e-05  8.74093e-05
       H  3.41335e-04  2.98505e-04  1.31802e-04
       H -9.43648e-04 -1.00526e-03  6.17183e-05
19
# CELL(abcABC):   78.60000    78.60000    78.60000    90.00000    90.00000    90.00000  Step:         270  Bead:       0 velocities{atomic_unit}  cell{angstrom}
       O -1.62747e-04  5.76793e-05 -1.81245e-04
       O -5.75883e-05 -9.51789e-05 -1.60239e-04
       O -9.19006e-05 -4.61313e-05  5.37651e-05
       O  2.86889e-04  1.81269e-05  2.32714e-05
       H -6.43361e-04  3.14559e-04 -2.18647e-04
       H -7.52545e-04  9.60863e-04 -4.47833e-04
       H -2.26787e-04  1.88287e-04  6.17690e-05
       H  2.21085e-04 -2.48906e-04  4.63606e-04
       H  2.75448e-04  2.28132e-04  3.56014e-04
       H  6.06698e-05 -3.00198e-04  4.89760e-04
       H -1.38719e-04 -2.28975e-04 -5.45628e-04
       H  3.94797e-04 -1.80274e-04  6.20760e-04
       H -2.19477e-04  9.81255e-04  4.68050e-04
       O  1.05626e-04  8.27291e-05  3.45196e-05
       H  3.33983e-04  1.77574e-05 -4.21377e-04
       H  1.41479e-04 -2.81924e-05  1.08788e-03