19
# CELL(abcABC):   78.60000    78.60000    78.60000    90.00000    90.00000    90.00000  Step:           0  Bead:       0 positions{angstrom}  cell{angstrom}
       O  3.10384e+00  1.00162e+00 -7.58093e-02
       O  9.12208e-01 -3.79413e-01 -7.69206e-01
       O -9.11708e-01 -3.75721e-01  7.68803e-01
       O -3.10373e+00  1.00326e+00  6.88313e-02
       H  3.41869e+00  1.76474e+00 -5.76618e-01
       H  3.61874e+00  9.76562e-01  7.40276e-01
       H  1.72040e+00  1.10711e-01 -4.83913e-01
       H  1.15624e+00 -1.21925e+00 -1.22631e+00
       H -3.61746e+00  9.75339e-01 -7.47896e-01
       H -3.41721e+00  1.76997e+00  5.65009e-01
       H  1.30415e-03 -4.11875e-01 -9.61682e-04
       H -1.71996e+00  1.13093e-01  4.81879e-01
       H -1.15575e+00 -1.21220e+00  1.23170e+00
       O -1.45232e+00 -2.65310e+00  2.08868e+00
       H -2.02715e+00 -3.37841e+00  1.81320e+00
       H -1.39299e+00 -2.70412e+00  3.05135e+00
       O  1.45331e+00 -2.66451e+00 -2.07266e+00
       H  1.39874e+00 -2.72156e+00 -3.03528e+00
       H  2.02219e+00 -3.39139e+00 -1.78915e+00
19
# CELL(abcABC):   78.60000    78.60000    78.60000    90.00000    90.00000    90.00000  Step:          10  Bead:       0 positions{angstrom}  cell{angstrom}
       O  3.06073e+00  1.01094e+00 -9.84104e-02
       O  9.08936e-01 -3.81957e-01 -7.76577e-01
       O -9.06817e-01 -3.69856e-01  7.79038e-01
       O -3.06304e+00  1.03214e+00  5.58462e-02
       H  3.36441e+00  1.81013e+00 -5.35981e-01
       H  3.51746e+00  9.87880e-01  7.53593e-01
       H  1.70365e+00  1.29054e-01 -4.62572e-01
       H  1.17465e+00 -1.23846e+00 -1.19342e+00
       H -3.63885e+00  9.18138e-01 -7.04033e-01
       H -3.38442e+00  1.78169e+00  5.65587e-01
       H  4.02706e-03 -4.70952e-01 -9.41294e-02
       H -1.68863e+00  1.72740e-01  4.98133e-01
       H -1.16497e+00 -1.25497e+00  1.12708e+00
       O -1.43025e+00 -2.66807e+00  2.10559e+00
       H -1.94378e+00 -3.48875e+00  1.85408e+00
       H -1.39991e+00 -2.66404e+00  3.07101e+00
       O  1.42752e+00 -2.68978e+00 -2.06294e+00
       H  1.39481e+00 -2.76402e+00 -3.03903e+00
       H  2.13911e+00 -3.26713e+00 -1.72035e+00
19
# CELL(abcABC):   78.60000    78.60000    78.60000    90.00000    90.00000    90.00000  Step:          20  Bead:       0 positions{angstrom}  cell{angstrom}
       O  3.01855e+00  1.01946e+00 -1.18623e-01
       O  9.06538e-01 -3.89396e-01 -7.87531e-01
       O -8.97829e-01 -3.66751e-01  7.83639e-01
       O -3.02041e+00  1.06056e+00  4.33995e-02
       H  3.30040e+00  1.86679e+00 -5.17962e-01
       H  3.41142e+00  9.93419e-01  7.63790e-01
       H  1.66248e+00  1.49619e-01 -4.44417e-01
       H  1.18934e+00 -1.23859e+00 -1.21253e+00
       H -3.67690e+00  8.74515e-01 -6.57523e-01
       H -3.37602e+00  1.80622e+00  5.55376e-01
       H  3.33756e-02 -4.08358e-01 -8.40020e-02
       H -1.67733e+00  1.67127e-01  5.33350e-01
       H -1.23425e+00 -1.25347e+00  1.08020e+00
       O -1.41167e+00 -2.69050e+00  2.12023e+00
       H -1.81043e+00 -3.50076e+00  1.92183e+00
       H -1.40420e+00 -2.61612e+00  3.08264e+00
       O  1.40431e+00 -2.71427e+00 -2.04952e+00
       H  1.41939e+00 -2.82334e+00 -2.98986e+00
       H  2.20198e+00 -3.13839e+00 -1.73703e+00
19
# CELL(abcABC):   78.60000    78.60000    78.60000    90.00000    90.00000    90.00000  Step:          30  Bead:       0 positions{angstrom}  cell{angstrom}
       O  2.97801e+00  1.03016e+00 -1.36807e-01
       O  9.03733e-01 -3.95489e-01 -7.98621e-01
       O -8.90903e-01 -3.68484e-01  7.86494e-01
       O -2.98232e+00  1.09096e+00  2.96788e-02
       H  3.21233e+00  1.88187e+00 -4.95502e-01
       H  3.31528e+00  1.00659e+00  7.67582e-01
       H  1.66502e+00  1.66655e-01 -4.87408e-01
       H  1.16486e+00 -1.22865e+00 -1.26079e+00
       H -3.67320e+00  8.39445e-01 -5.78043e-01
       H -3.35917e+00  1.81555e+00  5.32701e-01
       H  4.96308e-02 -3.74550e-01 -3.72459e-02
       H -1.69069e+00  1.81479e-01  5.45587e-01
       H -1.24136e+00 -1.21525e+00  1.09903e+00
       O -1.38993e+00 -2.70526e+00  2.13475e+00
       H -1.73694e+00 -3.64409e+00  1.96781e+00
       H -1.40953e+00 -2.56598e+00  3.09526e+00
       O  1.38408e+00 -2.73621e+00 -2.02963e+00
       H  1.41849e+00 -2.87453e+00 -3.01280e+00
       H  2.27396e+00 -3.05559e+00 -1.75156e+00
19
# CELL(abcABC):   78.60000    78.60000    78.60000    90.00000    90.00000    90.00000  Step:          40  Bead:       0 positions{angstrom}  cell{angstrom}
       O  2.93775e+00  1.03877e+00 -1.51380e-01
       O  8.99161e-01 -3.95171e-01 -8.06109e-01
       O -8.90276e-01 -3.65663e-01  7.88229e-01
       O -2.94628e+00  1.12316e+00  1.66333e-02
       H  3.12985e+00  1.93269e+00 -4.96899e-01
       H  3.23758e+00  1.03239e+00  7.69953e-01
       H  1.70835e+00  1.48202e-01 -6.08037e-01
       H  1.09529e+00 -1.22628e+00 -1.30827e+00
       H -3.67384e+00  7.71470e-01 -5.36924e-01
       H -3.32689e+00  1.85077e+00  5.39566e-01
       H  3.41312e-02 -4.50218e-01 -3.40721e-02
       H -1.64640e+00  1.94317e-01  5.34044e-01
       H -1.17613e+00 -1.24874e+00  1.18050e+00
       O -1.37208e+00 -2.72764e+00  2.14723e+00
       H -1.60698e+00 -3.62895e+00  2.05513e+00
       H -1.41880e+00 -2.54332e+00  3.08445e+00
       O  1.37575e+00 -2.75944e+00 -2.01445e+00
       H  1.34713e+00 -2.88414e+00 -2.95382e+00
       H  2.26389e+00 -2.98908e+00 -1.75039e+00
19
# CELL(abcABC):   78.60000    78.60000    78.60000    90.00000    90.00000    90.00000  Step:          50  Bead:       0 positions{angstrom}  cell{angstrom}
       O  2.90053e+00  1.05144e+00 -1.64898e-01
       O  8.90505e-01 -3.98548e-01 -8.16174e-01
       O -8.83588e-01 -3.72774e-01  7.92524e-01
       O -2.91438e+00  1.15588e+00  2.84038e-03
       H  3.03976e+00  1.94469e+00 -4.92829e-01
       H  3.16648e+00  1.06004e+00  7.59419e-01
       H  1.72933e+00  1.20325e-01 -6.99362e-01
       H  1.01157e+00 -1.21864e+00 -1.34918e+00
       H -3.63384e+00  7.29698e-01 -4.66562e-01
       H -3.28486e+00  1.86843e+00  5.27823e-01
       H  2.39928e-02 -4.59183e-01 -2.71085e-02
       H -1.66603e+00  1.93054e-01  5.05629e-01
       H -1.10858e+00 -1.19277e+00  1.22852e+00
       O -1.35191e+00 -2.74189e+00  2.15989e+00
       H -1.51373e+00 -3.71005e+00  2.09884e+00
       H -1.42773e+00 -2.52290e+00  3.11323e+00
       O  1.36811e+00 -2.77755e+00 -1.99500e+00
       H  1.25972e+00 -2.90695e+00 -2.95885e+00
       H  2.28807e+00 -2.98685e+00 -1.74871e+00
19
# CELL(abcABC):   78.60000    78.60000    78.60000    90.00000    90.00000    90.00000  Step:          60  Bead:       0 positions{angstrom}  cell{angstrom}
       O  2.86590e+00  1.06617e+00 -1.78593e-01
       O  8.74858e-01 -4.08474e-01 -8.32295e-01
       O -8.71341e-01 -3.74385e-01  7.90949e-01
       O -2.87946e+00  1.18560e+00 -1.07815e-02
       H  2.96165e+00  1.96925e+00 -5.04077e-01
       H  3.10597e+00  1.08086e+00  7.61837e-01
       H  1.70755e+00  1.05977e-01 -6.93649e-01
       H  9.62630e-01 -1.22588e+00 -1.37609e+00
       H -3.62802e+00  7.15503e-01 -4.06822e-01
       H -3.26591e+00  1.90065e+00  5.17929e-01
       H  3.71586e-02 -3.69321e-01  6.51962e-03
       H -1.67018e+00  1.15504e-01  5.25113e-01
       H -1.11747e+00 -1.21725e+00  1.29314e+00
       O -1.33307e+00 -2.75498e+00  2.17766e+00
       H -1.40093e+00 -3.73340e+00  2.11846e+00
       H -1.43283e+00 -2.53988e+00  3.09921e+00
       O  1.36041e+00 -2.79070e+00 -1.97515e+00
       H  1.21444e+00 -2.95878e+00 -2.91838e+00
       H  2.28253e+00 -3.03039e+00 -1.81517e+00
19
# CELL(abcABC):   78.60000    78.60000    78.60000    90.00000    90.00000    90.00000  Step:          70  Bead:       0 positions{angstrom}  cell{angstrom}
       O  2.83398e+00  1.08272e+00 -1.90538e-01
       O  8.51082e-01 -4.17037e-01 -8.49275e-01
       O -8.59840e-01 -3.81765e-01  7.97525e-01
       O -2.84698e+00  1.21200e+00 -2.39843e-02
       H  2.89430e+00  1.99842e+00 -5.18507e-01
       H  3.05703e+00  1.10769e+00  7.45438e-01
       H  1.68647e+00  9.05006e-02 -6.58380e-01
       H  9.74588e-01 -1.25752e+00 -1.35324e+00
       H -3.62849e+00  7.35763e-01 -3.59699e-01
       H -3.22945e+00  1.93036e+00  5.01979e-01
       H  5.98883e-02 -3.63305e-01 -2.69557e-02
       H -1.69932e+00  1.01685e-01  5.42452e-01
       H -1.06326e+00 -1.19748e+00  1.24628e+00
       O -1.31355e+00 -2.76690e+00  2.19456e+00
       H -1.29600e+00 -3.70029e+00  2.11242e+00
       H -1.44361e+00 -2.58117e+00  3.14498e+00
       O  1.35348e+00 -2.80160e+00 -1.95813e+00
       H  1.16128e+00 -3.02447e+00 -2.87093e+00
       H  2.26939e+00 -3.09358e+00 -1.87181e+00
19
# CELL(abcABC):   78.60000    78.60000    78.60000    90.00000    90.00000    90.00000  Step:          80  Bead:       0 positions{angstrom}  cell{angstrom}
       O  2.80345e+00  1.10167e+00 -2.02249e-01
       O  8.26264e-01 -4.22612e-01 -8.68459e-01
       O -8.52576e-01 -3.82342e-01  8.05460e-01
       O -2.82117e+00  1.23453e+00 -3.61281e-02
       H  2.83414e+00  1.99953e+00 -5.28018e-01
       H  3.03248e+00  1.14724e+00  7.36838e-01
       H  1.65549e+00  7.94432e-02 -6.36319e-01
       H  1.02810e+00 -1.30418e+00 -1.28104e+00
       H -3.60399e+00  7.81426e-01 -3.44966e-01
       H -3.14733e+00  1.97024e+00  4.91191e-01
       H  5.44925e-02 -4.59975e-01 -1.20822e-01
       H -1.65565e+00  1.13465e-01  5.79567e-01
       H -1.01392e+00 -1.28525e+00  1.22254e+00
       O -1.29480e+00 -2.76821e+00  2.21570e+00
       H -1.18187e+00 -3.76221e+00  2.07310e+00
       H -1.45310e+00 -2.65701e+00  3.16440e+00
       O  1.35050e+00 -2.81231e+00 -1.94496e+00
       H  1.03475e+00 -3.08763e+00 -2.84099e+00
       H  2.26236e+00 -3.15877e+00 -1.86872e+00
19
# CELL(abcABC):   78.60000    78.60000    78.60000    90.00000    90.00000    90.00000  Step:          90  Bead:       0 positions{angstrom}  cell{angstrom}
       O  2.77387e+00  1.11872e+00 -2.10770e-01
       O  8.08518e-01 -4.35005e-01 -8.98834e-01
       O -8.40208e-01 -3.94529e-01  8.18783e-01
       O -2.79563e+00  1.25456e+00 -4.63133e-02
       H  2.77805e+00  2.03034e+00 -5.65446e-01
       H  3.02717e+00  1.19254e+00  7.22466e-01
       H  1.58795e+00  1.16410e-01 -5.95328e-01
       H  1.08931e+00 -1.33076e+00 -1.21979e+00
       H -3.62016e+00  8.32871e-01 -3.68373e-01
       H -3.05264e+00  2.03031e+00  4.85632e-01
       H -3.28824e-03 -4.83047e-01 -1.40287e-01
       H -1.66334e+00  1.36557e-01  6.20597e-01
       H -1.04240e+00 -1.25395e+00  1.19854e+00
       O -1.27450e+00 -2.77749e+00  2.23590e+00
       H -1.09095e+00 -3.66829e+00  2.04801e+00
       H -1.45947e+00 -2.73669e+00  3.17070e+00
       O  1.34931e+00 -2.82490e+00 -1.93646e+00
       H  9.32071e-01 -3.11902e+00 -2.73033e+00
       H  2.20978e+00 -3.22201e+00 -1.86759e+00
19
# CELL(abcABC):   78.60000    78.60000    78.60000    90.00000    90.00000    90.00000  Step:         100  Bead:       0 positions{angstrom}  cell{angstrom}
       O  2.74439e+00  1.13874e+00 -2.17013e-01
       O  7.93136e-01 -4.50832e-01 -9.31129e-01
       O -8.30977e-01 -4.05222e-01  8.30845e-01
       O -2.77193e+00  1.27139e+00 -5.41727e-02
       H  2.72915e+00  2.01822e+00 -6.00302e-01
       H  3.03691e+00  1.24282e+00  6.91828e-01
       H  1.50434e+00  1.55750e-01 -5.91719e-01
       H  1.14000e+00 -1.33277e+00 -1.21219e+00
       H -3.61089e+00  9.50893e-01 -3.78816e-01
       H -2.97439e+00  2.06196e+00  4.44517e-01
       H -3.54645e-02 -4.38962e-01 -1.26013e-01
       H -1.62731e+00  1.29746e-01  6.52838e-01
       H -1.12575e+00 -1.26054e+00  1.26265e+00
       O -1.25442e+00 -2.77793e+00  2.25367e+00
       H -9.84024e-01 -3.69911e+00  1.99487e+00
       H -1.47789e+00 -2.81427e+00  3.21992e+00
       O  1.34722e+00 -2.83265e+00 -1.92036e+00
       H  8.30313e-01 -3.18191e+00 -2.68525e+00
       H  2.19084e+00 -3.34066e+00 -1.90618e+00
19
# CELL(abcABC):   78.60000    78.60000    78.60000    90.00000    90.00000    90.00000  Step:         110  Bead:       0 positions{angstrom}  cell{angstrom}
       O  2.71324e+00  1.15844e+00 -2.22142e-01
       O  7.72559e-01 -4.61174e-01 -9.56798e-01
       O -8.28752e-01 -4.20641e-01  8.47012e-01
       O -2.74687e+00  1.28602e+00 -5.94911e-02
       H  2.69909e+00  2.02892e+00 -6.48704e-01
       H  3.06800e+00  1.30080e+00  6.75252e-01
       H  1.49093e+00  1.66512e-01 -6.64513e-01
       H  1.15735e+00 -1.32933e+00 -1.23701e+00
       H -3.62926e+00  1.06373e+00 -4.16096e-01
       H -2.90223e+00  2.13020e+00  4.10339e-01
       H -3.47441e-03 -5.00283e-01 -1.47203e-01
       H -1.60360e+00  1.65145e-01  6.37800e-01
       H -1.12189e+00 -1.21877e+00  1.32244e+00
       O -1.23446e+00 -2.78263e+00  2.27389e+00
       H -9.08881e-01 -3.63750e+00  1.97340e+00
       H -1.47085e+00 -2.89221e+00  3.17297e+00
       O  1.34822e+00 -2.84670e+00 -1.90667e+00
       H  7.69201e-01 -3.20098e+00 -2.58204e+00
       H  2.10672e+00 -3.42321e+00 -1.95225e+00
19
# CELL(abcABC):   78.60000    78.60000    78.60000    90.00000    90.00000    90.00000  Step:         120  Bead:       0 positions{angstrom}  cell{angstrom}
       O  2.68140e+00  1.18107e+00 -2.26327e-01
       O  7.51714e-01 -4.67468e-01 -9.78582e-01
       O -8.29909e-01 -4.31787e-01  8.61190e-01
       O -2.72778e+00  1.30446e+00 -6.17532e-02
       H  2.69431e+00  2.03164e+00 -6.92951e-01
       H  3.08586e+00  1.34346e+00  6.26912e-01
       H  1.50486e+00  1.46805e-01 -7.47696e-01
       H  1.12354e+00 -1.33455e+00 -1.28839e+00
       H -3.59213e+00  1.15352e+00 -4.61245e-01
       H -2.79103e+00  2.16713e+00  3.55017e-01
       H  6.34652e-02 -6.07378e-01 -1.67324e-01
       H -1.56880e+00  1.56801e-01  6.15916e-01
       H -1.09316e+00 -1.20855e+00  1.40021e+00
       O -1.21278e+00 -2.78443e+00  2.28670e+00
       H -8.42669e-01 -3.59967e+00  1.95594e+00
       H -1.49042e+00 -2.97551e+00  3.22283e+00
       O  1.34914e+00 -2.86483e+00 -1.89382e+00
       H  6.61548e-01 -3.18312e+00 -2.50086e+00
       H  2.08878e+00 -3.49625e+00 -1.95813e+00
19
# CELL(abcABC):   78.60000    78.60000    78.60000    90.00000    90.00000    90.00000  Step:         130  Bead:       0 positions{angstrom}  cell{angstrom}
       O  2.64791e+00  1.20643e+00 -2.35180e-01
       O  7.36482e-01 -4.78238e-01 -1.00263e+00
       O -8.24481e-01 -4.45898e-01  8.72362e-01
       O -2.70873e+00  1.32405e+00 -6.29701e-02
       H  2.70943e+00  2.02613e+00 -7.30558e-01
       H  3.10377e+00  1.36325e+00  6.08033e-01
       H  1.49417e+00  1.21906e-01 -7.61736e-01
       H  1.06793e+00 -1.34424e+00 -1.36717e+00
       H -3.55165e+00  1.21999e+00 -5.13466e-01
       H -2.67901e+00  2.21949e+00  3.04378e-01
       H  9.24003e-02 -5.90796e-01 -1.32233e-01
       H -1.59769e+00  1.01962e-01  6.08931e-01
       H -1.09761e+00 -1.17178e+00  1.48931e+00
       O -1.19361e+00 -2.78519e+00  2.30554e+00
       H -7.63955e-01 -3.59784e+00  1.92708e+00
       H -1.48750e+00 -3.03072e+00  3.17996e+00
       O  1.34898e+00 -2.88549e+00 -1.88228e+00
       H  5.79464e-01 -3.16424e+00 -2.41203e+00
       H  2.05750e+00 -3.53745e+00 -1.95826e+00
19
# CELL(abcABC):   78.60000    78.60000    78.60000    90.00000    90.00000    90.00000  Step:         140  Bead:       0 positions{angstrom}  cell{angstrom}
       O  2.61370e+00  1.23232e+00 -2.45022e-01
       O  7.23391e-01 -4.90019e-01 -1.02278e+00
       O -8.17963e-01 -4.60784e-01  8.83372e-01
       O -2.68695e+00  1.34295e+00 -6.22551e-02
       H  2.74306e+00  2.03990e+00 -7.75517e-01
       H  3.10460e+00  1.35715e+00  5.77386e-01
       H  1.48794e+00  8.94885e-02 -7.56494e-01
       H  1.03440e+00 -1.34860e+00 -1.40586e+00
       H -3.52238e+00  1.30394e+00 -5.64512e-01
       H -2.59546e+00  2.26209e+00  2.34136e-01
       H  5.92473e-02 -5.26693e-01 -1.25997e-01
       H -1.62785e+00  2.72559e-02  6.10229e-01
       H -1.07022e+00 -1.13286e+00  1.52556e+00
       O -1.17100e+00 -2.79004e+00  2.31929e+00
       H -7.34948e-01 -3.52602e+00  1.94205e+00
       H -1.49714e+00 -3.08104e+00  3.17824e+00
       O  1.34273e+00 -2.90263e+00 -1.86980e+00
       H  5.75528e-01 -3.21038e+00 -2.34109e+00
       H  2.01227e+00 -3.57715e+00 -1.98224e+00
19
# CELL(abcABC):   78.60000    78.60000    78.60000    90.00000    90.00000    90.00000  Step:         150  Bead:       0 positions{angstrom}  cell{angstrom}
       O  2.57880e+00  1.25978e+00 -2.57843e-01
       O  7.09055e-01 -4.94699e-01 -1.03313e+00
       O -8.13447e-01 -4.68782e-01  8.88384e-01
       O -2.66648e+00  1.36240e+00 -6.25524e-02
       H  2.78399e+00  2.02730e+00 -7.95291e-01
       H  3.09882e+00  1.34151e+00  5.45102e-01
       H  1.49937e+00  5.77190e-02 -7.84128e-01
       H  1.02609e+00 -1.37415e+00 -1.36846e+00
       H -3.46122e+00  1.38362e+00 -5.91290e-01
       H -2.52177e+00  2.28194e+00  1.64104e-01
       H  9.05358e-03 -5.55663e-01 -1.93426e-01
       H -1.63129e+00 -1.48492e-02  6.22075e-01
       H -9.88469e-01 -1.19818e+00  1.56260e+00
       O -1.15091e+00 -2.78838e+00  2.33481e+00
       H -6.61262e-01 -3.54554e+00  1.92264e+00
       H -1.51833e+00 -3.13233e+00  3.19168e+00
       O  1.33234e+00 -2.91844e+00 -1.85693e+00
       H  5.45137e-01 -3.30509e+00 -2.31400e+00
       H  2.02001e+00 -3.60810e+00 -2.00332e+00
19
# CELL(abcABC):   78.60000    78.60000    78.60000    90.00000    90.00000    90.00000  Step:         160  Bead:       0 positions{angstrom}  cell{angstrom}
       O  2.54269e+00  1.28551e+00 -2.72399e-01
       O  6.96722e-01 -4.99564e-01 -1.04072e+00
       O -8.06688e-01 -4.80018e-01  8.91512e-01
       O -2.64597e+00  1.38222e+00 -6.31557e-02
       H  2.83068e+00  2.02909e+00 -8.26369e-01
       H  3.09877e+00  1.31562e+00  5.29829e-01
       H  1.47251e+00  7.29109e-02 -7.93198e-01
       H  1.01568e+00 -1.40275e+00 -1.30453e+00
       H -3.43384e+00  1.42175e+00 -6.39879e-01
       H -2.41373e+00  2.31437e+00  1.26516e-01
       H -3.51344e-03 -5.93455e-01 -2.23546e-01
       H -1.66138e+00 -3.08824e-02  6.82595e-01
       H -9.11641e-01 -1.21054e+00  1.49039e+00
       O -1.12955e+00 -2.79275e+00  2.35157e+00
       H -6.40088e-01 -3.51111e+00  1.96075e+00
       H -1.50232e+00 -3.13560e+00  3.13005e+00
       O  1.31598e+00 -2.94517e+00 -1.84997e+00
       H  5.60805e-01 -3.34791e+00 -2.25916e+00
       H  2.04485e+00 -3.53718e+00 -1.98044e+00
19
# CELL(abcABC):   78.60000    78.60000    78.60000    90.00000    90.00000    90.00000  Step:         170  Bead:       0 positions{angstrom}  cell{angstrom}
       O  2.50846e+00  1.31136e+00 -2.86782e-01
       O  6.86205e-01 -5.09893e-01 -1.04644e+00
       O -7.97913e-01 -4.85741e-01  8.84381e-01
       O -2.62621e+00  1.40451e+00 -6.49514e-02
       H  2.86679e+00  2.00916e+00 -8.50995e-01
       H  3.06804e+00  1.28022e+00  4.86131e-01
       H  1.40723e+00  1.29154e-01 -7.80840e-01
       H  1.02974e+00 -1.41410e+00 -1.28243e+00
       H -3.37544e+00  1.44850e+00 -6.57703e-01
       H -2.32159e+00  2.29276e+00  8.94514e-02
       H  1.79706e-03 -5.34647e-01 -1.87080e-01
       H -1.65771e+00 -5.38051e-02  7.78603e-01
       H -9.16613e-01 -1.29614e+00  1.48555e+00
       O -1.10434e+00 -2.79307e+00  2.36077e+00
       H -6.00881e-01 -3.53165e+00  1.99201e+00
       H -1.55049e+00 -3.15844e+00  3.19031e+00
       O  1.29670e+00 -2.96895e+00 -1.83992e+00
       H  5.41852e-01 -3.43282e+00 -2.25381e+00
       H  2.12738e+00 -3.48051e+00 -1.96089e+00
19
# CELL(abcABC):   78.60000    78.60000    78.60000    90.00000    90.00000    90.00000  Step:         180  Bead:       0 positions{angstrom}  cell{angstrom}
       O  2.47309e+00  1.33621e+00 -3.03655e-01
       O  6.75450e-01 -5.17052e-01 -1.04369e+00
       O -7.89591e-01 -5.00117e-01  8.83123e-01
       O -2.60335e+00  1.42070e+00 -6.45977e-02
       H  2.89141e+00  1.98511e+00 -8.80761e-01
       H  3.05121e+00  1.24242e+00  4.76941e-01
       H  1.37167e+00  1.55642e-01 -8.29314e-01
       H  1.05390e+00 -1.39822e+00 -1.29082e+00
       H -3.34241e+00  1.49936e+00 -6.85776e-01
       H -2.24977e+00  2.32303e+00  4.84236e-02
       H -2.61836e-02 -4.98523e-01 -1.75586e-01
       H -1.64951e+00 -2.26176e-02  8.20345e-01
       H -9.21148e-01 -1.27513e+00  1.41844e+00
       O -1.08097e+00 -2.79846e+00  2.37489e+00
       H -5.73299e-01 -3.56574e+00  2.04699e+00
       H -1.54180e+00 -3.09579e+00  3.13438e+00
       O  1.27681e+00 -2.99130e+00 -1.82688e+00
       H  6.16498e-01 -3.54393e+00 -2.26171e+00
       H  2.12141e+00 -3.41736e+00 -1.96584e+00
19
# CELL(abcABC):   78.60000    78.60000    78.60000    90.00000    90.00000    90.00000  Step:         190  Bead:       0 positions{angstrom}  cell{angstrom}
       O  2.43840e+00  1.35930e+00 -3.19750e-01
       O  6.64108e-01 -5.16639e-01 -1.03509e+00
       O -7.85510e-01 -5.07249e-01  8.79950e-01
       O -2.57822e+00  1.43798e+00 -6.35784e-02
       H  2.91669e+00  1.96481e+00 -9.09382e-01
       H  3.01121e+00  1.21613e+00  4.40482e-01
       H  1.38501e+00  1.61567e-01 -9.19108e-01
       H  1.02998e+00 -1.39045e+00 -1.31059e+00
       H -3.30435e+00  1.54366e+00 -6.96017e-01
       H -2.20945e+00  2.32518e+00  4.97761e-03
       H -6.09460e-02 -5.68819e-01 -1.89284e-01
       H -1.58828e+00  3.50539e-02  7.92174e-01
       H -9.27212e-01 -1.35052e+00  1.42757e+00
       O -1.05189e+00 -2.80399e+00  2.38059e+00
       H -5.72248e-01 -3.58549e+00  2.12946e+00
       H -1.58602e+00 -3.04969e+00  3.16865e+00
       O  1.25691e+00 -3.01314e+00 -1.81191e+00
       H  6.87690e-01 -3.63602e+00 -2.27810e+00
       H  2.14105e+00 -3.37671e+00 -1.98007e+00
19
# CELL(abcABC):   78.60000    78.60000    78.60000    90.00000    90.00000    90.00000  Step:         200  Bead:       0 positions{angstrom}  cell{angstrom}
       O  2.40434e+00  1.38167e+00 -3.39674e-01
       O  6.54827e-01 -5.15486e-01 -1.03045e+00
       O -7.80399e-01 -5.20829e-01  8.78591e-01
       O -2.55210e+00  1.45718e+00 -6.36955e-02
       H  2.92917e+00  1.94214e+00 -9.20545e-01
       H  2.97174e+00  1.19659e+00  4.18329e-01
       H  1.37116e+00  1.52270e-01 -9.39494e-01
       H  9.52028e-01 -1.39734e+00 -1.36059e+00
       H -3.27458e+00  1.53664e+00 -6.89546e-01
       H -2.15820e+00  2.33380e+00 -8.18822e-03
       H -5.88624e-02 -6.04766e-01 -1.36833e-01
       H -1.55163e+00  7.00633e-02  7.39873e-01
       H -9.69430e-01 -1.30311e+00  1.39908e+00
       O -1.02441e+00 -2.80852e+00  2.38727e+00
       H -5.56907e-01 -3.65371e+00  2.21827e+00
       H -1.61044e+00 -2.96588e+00  3.16073e+00
       O  1.24219e+00 -3.04015e+00 -1.79809e+00
       H  6.97382e-01 -3.68558e+00 -2.29349e+00
       H  2.17141e+00 -3.29433e+00 -1.96603e+00
19
# CELL(abcABC):   78.60000    78.60000    78.60000    90.00000    90.00000    90.00000  Step:         210  Bead:       0 positions{angstrom}  cell{angstrom}
       O  2.37153e+00  1.40225e+00 -3.61475e-01
       O  6.41314e-01 -5.19313e-01 -1.02897e+00
       O -7.74768e-01 -5.28281e-01  8.72941e-01
       O -2.52239e+00  1.47514e+00 -6.18491e-02
       H  2.93517e+00  1.93864e+00 -9.40888e-01
       H  2.92437e+00  1.18159e+00  4.12256e-01
       H  1.38003e+00  1.38558e-01 -8.99931e-01
       H  8.77977e-01 -1.38773e+00 -1.43242e+00
       H -3.26582e+00  1.51085e+00 -6.88897e-01
       H -2.11640e+00  2.36031e+00 -1.41921e-02
       H -1.69157e-02 -5.69183e-01 -5.40867e-02
       H -1.53598e+00  6.78227e-02  6.76025e-01
       H -1.04555e+00 -1.32329e+00  1.42860e+00
       O -9.97956e-01 -2.81499e+00  2.39453e+00
       H -5.76360e-01 -3.67093e+00  2.32420e+00
       H -1.59254e+00 -2.88582e+00  3.11522e+00
       O  1.23146e+00 -3.06897e+00 -1.78538e+00
       H  7.16822e-01 -3.68410e+00 -2.29194e+00
       H  2.15291e+00 -3.22275e+00 -1.94656e+00
19
# CELL(abcABC):   78.60000    78.60000    78.60000    90.00000    90.00000    90.00000  Step:         220  Bead:       0 positions{angstrom}  cell{angstrom}
       O  2.34189e+00  1.41988e+00 -3.82522e-01
       O  6.26673e-01 -5.19781e-01 -1.02532e+00
       O -7.76706e-01 -5.33353e-01  8.73448e-01
       O -2.48941e+00  1.49046e+00 -5.80589e-02
       H  2.91999e+00  1.93669e+00 -9.56615e-01
       H  2.85922e+00  1.19919e+00  3.88586e-01
       H  1.39733e+00  7.45533e-02 -9.06245e-01
       H  8.43393e-01 -1.36938e+00 -1.47314e+00
       H -3.22690e+00  1.51013e+00 -6.66590e-01
       H -2.12997e+00  2.37148e+00 -4.20594e-02
       H  1.79115e-03 -5.98293e-01 -3.73771e-02
       H -1.51665e+00  4.66237e-02  6.12156e-01
       H -1.03676e+00 -1.31402e+00  1.38570e+00
       O -9.70484e-01 -2.81841e+00  2.39766e+00
       H -5.74373e-01 -3.70322e+00  2.40599e+00
       H -1.64189e+00 -2.80870e+00  3.15872e+00
       O  1.21892e+00 -3.08928e+00 -1.76720e+00
       H  7.37427e-01 -3.72670e+00 -2.34234e+00
       H  2.17815e+00 -3.22249e+00 -1.96976e+00
19
# CELL(abcABC):   78.60000    78.60000    78.60000    90.00000    90.00000    90.00000  Step:         230  Bead:       0 positions{angstrom}  cell{angstrom}
       O  2.31194e+00  1.43355e+00 -4.05521e-01
       O  6.13519e-01 -5.21065e-01 -1.02372e+00
       O -7.78767e-01 -5.32363e-01  8.74206e-01
       O -2.45395e+00  1.50028e+00 -5.22696e-02
       H  2.90090e+00  1.94831e+00 -9.75038e-01
       H  2.82773e+00  1.24692e+00  4.07464e-01
       H  1.42945e+00  4.81489e-02 -9.43018e-01
       H  8.24016e-01 -1.37274e+00 -1.46666e+00
       H -3.21487e+00  1.50877e+00 -6.59797e-01
       H -2.13509e+00  2.42817e+00 -6.41955e-02
       H -3.57288e-02 -6.62394e-01 -6.66042e-02
       H -1.54157e+00  3.42761e-02  5.74003e-01
       H -1.00460e+00 -1.36896e+00  1.35573e+00
       O -9.52396e-01 -2.82000e+00  2.40879e+00
       H -5.78957e-01 -3.70872e+00  2.47237e+00
       H -1.57018e+00 -2.75752e+00  3.09322e+00
       O  1.21072e+00 -3.10996e+00 -1.75342e+00
       H  7.83198e-01 -3.71770e+00 -2.35476e+00
       H  2.12349e+00 -3.24530e+00 -1.97530e+00
19
# CELL(abcABC):   78.60000    78.60000    78.60000    90.00000    90.00000    90.00000  Step:         240  Bead:       0 positions{angstrom}  cell{angstrom}
       O  2.28631e+00  1.44262e+00 -4.26414e-01
       O  6.07206e-01 -5.28088e-01 -1.03097e+00
       O -7.82624e-01 -5.32163e-01  8.73205e-01
       O -2.41940e+00  1.51256e+00 -4.94543e-02
       H  2.86829e+00  1.96834e+00 -9.91777e-01
       H  2.77236e+00  1.33848e+00  3.93343e-01
       H  1.37680e+00  6.29067e-02 -9.41467e-01
       H  8.12019e-01 -1.39970e+00 -1.44071e+00
       H -3.18878e+00  1.47823e+00 -6.25819e-01
       H -2.13038e+00  2.42322e+00 -5.27269e-02
       H -8.92595e-02 -6.14616e-01 -5.88464e-02
       H -1.55870e+00 -1.41829e-02  6.17580e-01
       H -9.85932e-01 -1.39231e+00  1.31896e+00
       O -9.31218e-01 -2.81971e+00  2.41339e+00
       H -5.71199e-01 -3.70850e+00  2.51043e+00
       H -1.59303e+00 -2.71157e+00  3.15701e+00
       O  1.20370e+00 -3.12952e+00 -1.74275e+00
       H  7.34733e-01 -3.71286e+00 -2.36839e+00
       H  2.15620e+00 -3.26125e+00 -1.94472e+00
19
# CELL(abcABC):   78.60000    78.60000    78.60000    90.00000    90.00000    90.00000  Step:         250  Bead:       0 positions{angstrom}  cell{angstrom}
       O  2.26358e+00  1.45009e+00 -4.47999e-01
       O  5.98633e-01 -5.41587e-01 -1.04436e+00
       O -7.87872e-01 -5.35734e-01  8.73974e-01
       O -2.38562e+00  1.51917e+00 -4.67580e-02
       H  2.81453e+00  1.99622e+00 -1.02555e+00
       H  2.71854e+00  1.43831e+00  4.10086e-01
       H  1.34039e+00  1.20185e-01 -9.31336e-01
       H  8.47480e-01 -1.42358e+00 -1.39727e+00
       H -3.17603e+00  1.45765e+00 -5.96889e-01
       H -2.10367e+00  2.44507e+00 -2.42853e-02
       H -1.04566e-01 -5.14296e-01 -5.56457e-02
       H -1.62267e+00 -1.11888e-02  6.99090e-01
       H -9.61202e-01 -1.39759e+00  1.30035e+00
       O -9.18018e-01 -2.81549e+00  2.42283e+00
       H -5.56206e-01 -3.70484e+00  2.52465e+00
       H -1.52930e+00 -2.69724e+00  3.15792e+00
       O  1.20025e+00 -3.14834e+00 -1.73595e+00
       H  6.85781e-01 -3.68076e+00 -2.35515e+00
       H  2.13906e+00 -3.29259e+00 -1.89076e+00
19
# CELL(abcABC):   78.60000    78.60000    78.60000    90.00000    90.00000    90.00000  Step:         260  Bead:       0 positions{angstrom}  cell{angstrom}
       O  2.24395e+00  1.45682e+00 -4.68006e-01
       O  5.90053e-01 -5.49223e-01 -1.05772e+00
       O -8.03467e-01 -5.32925e-01  8.77592e-01
       O -2.35110e+00  1.52032e+00 -4.28648e-02
       H  2.74448e+00  2.02418e+00 -1.06723e+00
       H  2.64787e+00  1.54769e+00  4.09958e-01
       H  1.30034e+00  1.10842e-01 -9.71596e-01
       H  9.23060e-01 -1.44352e+00 -1.32684e+00
       H -3.16270e+00  1.48535e+00 -5.71251e-01
       H -2.10232e+00  2.45753e+00  9.02492e-04
       H -9.50860e-02 -5.26334e-01 -1.18725e-01
       H -1.60088e+00 -7.03716e-03  8.02708e-01
       H -9.02292e-01 -1.43419e+00  1.30742e+00
       O -9.06690e-01 -2.80865e+00  2.43140e+00
       H -5.31987e-01 -3.69693e+00  2.51050e+00
       H -1.47502e+00 -2.69716e+00  3.18944e+00
       O  1.19493e+00 -3.16016e+00 -1.72560e+00
       H  6.83076e-01 -3.66659e+00 -2.36063e+00
       H  2.11582e+00 -3.38776e+00 -1.87918e+00
19
# CELL(abcABC):   78.60000    78.60000    78.60000    90.00000    90.00000    90.00000  Step:         270  Bead:       0 positions{angstrom}  cell{angstrom}
       O  2.22520e+00  1.46301e+00 -4.87691e-01
       O  5.81051e-01 -5.59552e-01 -1.07343e+00
       O -8.12545e-01 -5.37052e-01  8.83555e-01
       O -2.31808e+00  1.52037e+00 -3.93302e-02
       H  2.67613e+00  2.05972e+00 -1.10086e+00
       H  2.57419e+00  1.65724e+00  3.82698e-01
       H  1.30612e+00  1.33376e-01 -9.98549e-01
       H  9.64802e-01 -1.44761e+00 -1.25076e+00
       H -3.13918e+00  1.52456e+00 -5.39054e-01
       H -2.10470e+00  2.44892e+00  3.83697e-02
       H -1.00304e-01 -5.85634e-01 -1.96959e-01
       H -1.62779e+00  2.94460e-02  8.86340e-01
       H -8.87447e-01 -1.37949e+00  1.33697e+00
       O -8.95443e-01 -2.80078e+00  2.43691e+00
       H -5.04400e-01 -3.68001e+00  2.47272e+00
       H -1.43999e+00 -2.70153e+00  3.27768e+00
       O  1.19140e+00 -3.16708e+00 -1.71320e+00
       H  6.66555e-01 -3.65469e+00 -2.38390e+00