13
# CELL(abcABC):   56.20000    56.20000    56.20000    90.00000    90.00000    90.00000  Step:           0  Bead:       0 positions{angstrom}  cell{angstrom}
       O  1.07829e+00  2.29757e+00  2.62299e-01
       H  1.35605e+00  2.95115e+00 -3.92986e-01
       H  1.39279e+00  2.60247e+00  1.12305e+00
       O  1.44979e+00 -2.01984e+00 -4.81639e-02
       H  1.85187e+00 -2.49990e+00 -7.84093e-01
       H  1.59149e+00 -2.54582e+00  7.49355e-01
       O  2.15403e-02  6.94982e-02 -4.17345e-01
       H  4.45498e-01  9.31790e-01 -1.07543e-01
       H  5.68498e-01 -7.58027e-01 -2.29532e-01
       O -2.48487e+00 -1.79914e-01  2.79923e-02
       H -3.13123e+00 -2.00902e-01 -6.90002e-01
       H -2.97821e+00 -1.38805e-01  8.57266e-01
       H -9.60153e-01 -1.79410e-02 -1.98542e-01
13
# CELL(abcABC):   56.20000    56.20000    56.20000    90.00000    90.00000    90.00000  Step:           1  Bead:       0 positions{angstrom}  cell{angstrom}
       O  1.07889e+00  2.29940e+00  2.61288e-01
       H  1.35222e+00  2.94799e+00 -3.87018e-01
       H  1.38210e+00  2.58987e+00  1.11813e+00
       O  1.44606e+00 -2.01996e+00 -4.55565e-02
       H  1.85463e+00 -2.50027e+00 -7.84049e-01
       H  1.58715e+00 -2.55090e+00  7.46776e-01
       O  2.41223e-02  7.03273e-02 -4.19353e-01
       H  4.52989e-01  9.25850e-01 -9.73760e-02
       H  5.69125e-01 -7.76645e-01 -2.35805e-01
       O -2.48433e+00 -1.78572e-01  2.77444e-02
       H -3.12476e+00 -1.89719e-01 -6.78575e-01
       H -2.97349e+00 -1.54755e-01  8.51422e-01
       H -9.63329e-01 -2.89603e-02 -1.96058e-01
13
# CELL(abcABC):   56.20000    56.20000    56.20000    90.00000    90.00000    90.00000  Step:           2  Bead:       0 positions{angstrom}  cell{angstrom}
       O  1.07944e+00  2.30115e+00  2.60248e-01
       H  1.34875e+00  2.94566e+00 -3.81946e-01
       H  1.37193e+00  2.57778e+00  1.11462e+00
       O  1.44235e+00 -2.02010e+00 -4.29910e-02
       H  1.85715e+00 -2.50029e+00 -7.83799e-01
       H  1.58275e+00 -2.55603e+00  7.44609e-01
       O  2.66978e-02  7.10801e-02 -4.21354e-01
       H  4.60624e-01  9.20438e-01 -8.71613e-02
       H  5.69688e-01 -7.94804e-01 -2.42168e-01
       O -2.48370e+00 -1.77233e-01  2.75240e-02
       H -3.11933e+00 -1.78557e-01 -6.68636e-01
       H -2.96914e+00 -1.70673e-01  8.46629e-01
       H -9.66495e-01 -3.97135e-02 -1.93651e-01
13
# CELL(abcABC):   56.20000    56.20000    56.20000    90.00000    90.00000    90.00000  Step:           3  Bead:       0 positions{angstrom}  cell{angstrom}
       O  1.07989e+00  2.30272e+00  2.59152e-01
       H  1.34596e+00  2.94492e+00 -3.78418e-01
       H  1.36271e+00  2.56667e+00  1.11367e+00
       O  1.43867e+00 -2.02027e+00 -4.05033e-02
       H  1.85921e+00 -2.49969e+00 -7.83019e-01
       H  1.57825e+00 -2.56128e+00  7.43060e-01
       O  2.92581e-02  7.16900e-02 -4.23330e-01
       H  4.68267e-01  9.15507e-01 -7.69993e-02
       H  5.69872e-01 -8.11658e-01 -2.48716e-01
       O -2.48290e+00 -1.75897e-01  2.73593e-02
       H -3.11590e+00 -1.67395e-01 -6.61385e-01
       H -2.96549e+00 -1.86576e-01  8.43645e-01
       H -9.69088e-01 -4.98941e-02 -1.91464e-01
13
# CELL(abcABC):   56.20000    56.20000    56.20000    90.00000    90.00000    90.00000  Step:           4  Bead:       0 positions{angstrom}  cell{angstrom}
       O  1.08020e+00  2.30407e+00  2.57983e-01
       H  1.34408e+00  2.94633e+00 -3.76873e-01
       H  1.35476e+00  2.55690e+00  1.11607e+00
       O  1.43504e+00 -2.02049e+00 -3.81192e-02
       H  1.86063e+00 -2.49826e+00 -7.81475e-01
       H  1.57362e+00 -2.56663e+00  7.42256e-01
       O  3.17952e-02  7.21033e-02 -4.25262e-01
       H  4.75768e-01  9.10967e-01 -6.70130e-02
       H  5.69454e-01 -8.26499e-01 -2.55498e-01
       O -2.48186e+00 -1.74568e-01  2.72730e-02
       H -3.11517e+00 -1.56181e-01 -6.57674e-01
       H -2.96276e+00 -2.02508e-01  8.42969e-01
       H -9.70621e-01 -5.92163e-02 -1.89620e-01
13
# CELL(abcABC):   56.20000    56.20000    56.20000    90.00000    90.00000    90.00000  Step:           5  Bead:       0 positions{angstrom}  cell{angstrom}
       O  1.08036e+00  2.30516e+00  2.56738e-01
       H  1.34326e+00  2.95014e+00 -3.77443e-01
       H  1.34821e+00  2.54867e+00  1.12206e+00
       O  1.43145e+00 -2.02075e+00 -3.58518e-02
       H  1.86131e+00 -2.49585e+00 -7.79046e-01
       H  1.56879e+00 -2.57205e+00  7.42239e-01
       O  3.43020e-02  7.22804e-02 -4.27139e-01
       H  4.82972e-01  9.06706e-01 -5.73450e-02
       H  5.68291e-01 -8.38771e-01 -2.62523e-01
       O -2.48057e+00 -1.73246e-01  2.72757e-02
       H -3.11736e+00 -1.44851e-01 -6.57807e-01
       H -2.96098e+00 -2.18523e-01  8.44746e-01
       H -9.70714e-01 -6.74252e-02 -1.88221e-01
13
# CELL(abcABC):   56.20000    56.20000    56.20000    90.00000    90.00000    90.00000  Step:           6  Bead:       0 positions{angstrom}  cell{angstrom}
       O  1.08038e+00  2.30600e+00  2.55430e-01
       H  1.34348e+00  2.95629e+00 -3.79904e-01
       H  1.34298e+00  2.54198e+00  1.13126e+00
       O  1.42793e+00 -2.02109e+00 -3.37008e-02
       H  1.86121e+00 -2.49245e+00 -7.75734e-01
       H  1.56372e+00 -2.57745e+00  7.42960e-01
       O  3.67744e-02  7.21945e-02 -4.28948e-01
       H  4.89726e-01  9.02600e-01 -4.81502e-02
       H  5.66314e-01 -8.48064e-01 -2.69765e-01
       O -2.47905e+00 -1.71935e-01  2.73632e-02
       H -3.12221e+00 -1.33359e-01 -6.61471e-01
       H -2.96003e+00 -2.34658e-01  8.48737e-01
       H -9.69110e-01 -7.43066e-02 -1.87342e-01
13
# CELL(abcABC):   56.20000    56.20000    56.20000    90.00000    90.00000    90.00000  Step:           7  Bead:       0 positions{angstrom}  cell{angstrom}
       O  1.08028e+00  2.30662e+00  2.54089e-01
       H  1.34458e+00  2.96437e+00 -3.83717e-01
       H  1.33885e+00  2.53671e+00  1.14276e+00
       O  1.42447e+00 -2.02150e+00 -3.16528e-02
       H  1.86041e+00 -2.48811e+00 -7.71664e-01
       H  1.55834e+00 -2.58270e+00  7.44295e-01
       O  3.92112e-02  7.18313e-02 -4.30682e-01
       H  4.95895e-01  8.98538e-01 -3.95882e-02
       H  5.63516e-01 -8.54115e-01 -2.77171e-01
       O -2.47737e+00 -1.70635e-01  2.75189e-02
       H -3.12897e+00 -1.21700e-01 -6.67818e-01
       H -2.95961e+00 -2.50918e-01  8.54371e-01
       H -9.65680e-01 -7.96933e-02 -1.87029e-01
13
# CELL(abcABC):   56.20000    56.20000    56.20000    90.00000    90.00000    90.00000  Step:           8  Bead:       0 positions{angstrom}  cell{angstrom}
       O  1.08009e+00  2.30707e+00  2.52749e-01
       H  1.34635e+00  2.97376e+00 -3.88125e-01
       H  1.33549e+00  2.53266e+00  1.15528e+00
       O  1.42106e+00 -2.02198e+00 -2.96840e-02
       H  1.85904e+00 -2.48300e+00 -7.67071e-01
       H  1.55260e+00 -2.58765e+00  7.46060e-01
       O  4.16146e-02  7.11874e-02 -4.32337e-01
       H  5.01367e-01  8.94426e-01 -3.18150e-02
       H  5.59944e-01 -8.56796e-01 -2.84673e-01
       O -2.47561e+00 -1.69347e-01  2.77195e-02
       H -3.13664e+00 -1.09919e-01 -6.75670e-01
       H -2.95936e+00 -2.67259e-01  8.60849e-01
       H -9.60429e-01 -8.34693e-02 -1.87298e-01
13
# CELL(abcABC):   56.20000    56.20000    56.20000    90.00000    90.00000    90.00000  Step:           9  Bead:       0 positions{angstrom}  cell{angstrom}
       O  1.07985e+00  2.30740e+00  2.51448e-01
       H  1.34848e+00  2.98368e+00 -3.92284e-01
       H  1.33258e+00  2.52959e+00  1.16746e+00
       O  1.41771e+00 -2.02254e+00 -2.77626e-02
       H  1.85731e+00 -2.47733e+00 -7.62279e-01
       H  1.54645e+00 -2.59214e+00  7.48047e-01
       O  4.39895e-02  7.02705e-02 -4.33912e-01
       H  5.06059e-01  8.90202e-01 -2.49750e-02
       H  5.55699e-01 -8.56125e-01 -2.92186e-01
       O -2.47387e+00 -1.68071e-01  2.79410e-02
       H -3.14415e+00 -9.81050e-02 -6.83744e-01
       H -2.95886e+00 -2.83597e-01  8.67277e-01
       H -9.53492e-01 -8.55719e-02 -1.88134e-01
13
# CELL(abcABC):   56.20000    56.20000    56.20000    90.00000    90.00000    90.00000  Step:          10  Bead:       0 positions{angstrom}  cell{angstrom}
       O  1.07960e+00  2.30768e+00  2.50218e-01
       H  1.35071e+00  2.99339e+00 -3.95388e-01
       H  1.32981e+00  2.52731e+00  1.17800e+00
       O  1.41439e+00 -2.02317e+00 -2.58530e-02
       H  1.85546e+00 -2.47139e+00 -7.57663e-01
       H  1.53986e+00 -2.59605e+00  7.50045e-01
       O  4.63436e-02  6.90989e-02 -4.35410e-01
       H  5.09922e-01  8.85840e-01 -1.91950e-02
       H  5.50939e-01 -8.52268e-01 -2.99615e-01
       O -2.47223e+00 -1.66807e-01  2.81632e-02
       H -3.15050e+00 -8.63759e-02 -6.90848e-01
       H -2.95772e+00 -2.99815e-01  8.72793e-01
       H -9.45135e-01 -8.59922e-02 -1.89496e-01
13
# CELL(abcABC):   56.20000    56.20000    56.20000    90.00000    90.00000    90.00000  Step:          11  Bead:       0 positions{angstrom}  cell{angstrom}
       O  1.07937e+00  2.30796e+00  2.49086e-01
       H  1.35276e+00  3.00221e+00 -3.96759e-01
       H  1.32694e+00  2.52564e+00  1.18585e+00
       O  1.41109e+00 -2.02385e+00 -2.39208e-02
       H  1.85376e+00 -2.46545e+00 -7.53602e-01
       H  1.53281e+00 -2.59926e+00  7.51872e-01
       O  4.86859e-02  6.77020e-02 -4.36837e-01
       H  5.12944e-01  8.81351e-01 -1.45794e-02
       H  5.45881e-01 -8.45560e-01 -3.06856e-01
       O -2.47076e+00 -1.65555e-01  2.83713e-02
       H -3.15489e+00 -7.48597e-02 -6.95999e-01
       H -2.95567e+00 -3.15783e-01  8.76659e-01
       H -9.35749e-01 -8.47738e-02 -1.91310e-01
13
# CELL(abcABC):   56.20000    56.20000    56.20000    90.00000    90.00000    90.00000  Step:          12  Bead:       0 positions{angstrom}  cell{angstrom}
       O  1.07919e+00  2.30826e+00  2.48069e-01
       H  1.35445e+00  3.00962e+00 -3.95904e-01
       H  1.32380e+00  2.52446e+00  1.19030e+00
       O  1.40781e+00 -2.02459e+00 -2.19371e-02
       H  1.85247e+00 -2.45980e+00 -7.50427e-01
       H  1.52534e+00 -2.60175e+00  7.53395e-01
       O  5.10259e-02  6.61211e-02 -4.38205e-01
       H  5.15148e-01  8.76783e-01 -1.12063e-02
       H  5.40814e-01 -8.36513e-01 -3.13794e-01
       O -2.46952e+00 -1.64316e-01  2.85555e-02
       H -3.15677e+00 -6.36764e-02 -6.98491e-01
       H -2.95249e+00 -3.31377e-01  8.78329e-01
       H -9.25835e-01 -8.20089e-02 -1.93476e-01
13
# CELL(abcABC):   56.20000    56.20000    56.20000    90.00000    90.00000    90.00000  Step:          13  Bead:       0 positions{angstrom}  cell{angstrom}
       O  1.07906e+00  2.30863e+00  2.47175e-01
       H  1.35563e+00  3.01528e+00 -3.92549e-01
       H  1.32031e+00  2.52373e+00  1.19095e+00
       O  1.40452e+00 -2.02537e+00 -1.98833e-02
       H  1.85178e+00 -2.45464e+00 -7.48364e-01
       H  1.51745e+00 -2.60351e+00  7.54542e-01
       O  5.33716e-02  6.44093e-02 -4.39526e-01
       H  5.16591e-01  8.72220e-01 -9.12635e-03
       H  5.36102e-01 -8.25833e-01 -3.20307e-01
       O -2.46851e+00 -1.63088e-01  2.87103e-02
       H -3.15586e+00 -5.29229e-02 -6.97918e-01
       H -2.94810e+00 -3.46494e-01  8.77486e-01
       H -9.15986e-01 -7.78324e-02 -1.95875e-01
13
# CELL(abcABC):   56.20000    56.20000    56.20000    90.00000    90.00000    90.00000  Step:          14  Bead:       0 positions{angstrom}  cell{angstrom}
       O  1.07899e+00  2.30906e+00  2.46403e-01
       H  1.35626e+00  3.01906e+00 -3.86648e-01
       H  1.31648e+00  2.52342e+00  1.18779e+00
       O  1.40123e+00 -2.02618e+00 -1.77542e-02
       H  1.85181e+00 -2.45012e+00 -7.47490e-01
       H  1.50922e+00 -2.60463e+00  7.55313e-01
       O  5.57277e-02  6.26308e-02 -4.40819e-01
       H  5.17364e-01  8.67772e-01 -8.36188e-03
       H  5.32184e-01 -8.14410e-01 -3.26260e-01
       O -2.46775e+00 -1.61871e-01  2.88343e-02
       H -3.15216e+00 -4.26599e-02 -6.94178e-01
       H -2.94255e+00 -3.61071e-01  8.74054e-01
       H -9.06846e-01 -7.24130e-02 -1.98374e-01
13
# CELL(abcABC):   56.20000    56.20000    56.20000    90.00000    90.00000    90.00000  Step:          15  Bead:       0 positions{angstrom}  cell{angstrom}
       O  1.07897e+00  2.30954e+00  2.45744e-01
       H  1.35636e+00  3.02103e+00 -3.78383e-01
       H  1.31237e+00  2.52357e+00  1.18115e+00
       O  1.39793e+00 -2.02701e+00 -1.55594e-02
       H  1.85257e+00 -2.44628e+00 -7.47717e-01
       H  1.50071e+00 -2.60526e+00  7.55781e-01
       O  5.80931e-02  6.08580e-02 -4.42102e-01
       H  5.17580e-01  8.63576e-01 -8.90800e-03
       H  5.29556e-01 -8.03287e-01 -3.31509e-01
       O -2.46720e+00 -1.60664e-01  2.89295e-02
       H -3.14590e+00 -3.28991e-02 -6.87479e-01
       H -2.93601e+00 -3.75102e-01  8.68207e-01
       H -8.99056e-01 -6.59418e-02 -2.00840e-01
13
# CELL(abcABC):   56.20000    56.20000    56.20000    90.00000    90.00000    90.00000  Step:          16  Bead:       0 positions{angstrom}  cell{angstrom}
       O  1.07899e+00  2.31005e+00  2.45181e-01
       H  1.35602e+00  3.02149e+00 -3.68154e-01
       H  1.30812e+00  2.52428e+00  1.17175e+00
       O  1.39462e+00 -2.02785e+00 -1.33224e-02
       H  1.85398e+00 -2.44308e+00 -7.48793e-01
       H  1.49200e+00 -2.60557e+00  7.56075e-01
       O  6.04600e-02  5.91659e-02 -4.43393e-01
       H  5.17378e-01  8.59782e-01 -1.07343e-02
       H  5.28728e-01 -7.93573e-01 -3.35911e-01
       O -2.46681e+00 -1.59465e-01  2.90022e-02
       H -3.13764e+00 -2.35918e-02 -6.78336e-01
       H -2.92872e+00 -3.88643e-01  8.60354e-01
       H -8.93185e-01 -5.86203e-02 -2.03157e-01
13
# CELL(abcABC):   56.20000    56.20000    56.20000    90.00000    90.00000    90.00000  Step:          17  Bead:       0 positions{angstrom}  cell{angstrom}
       O  1.07902e+00  2.31056e+00  2.44684e-01
       H  1.35540e+00  3.02093e+00 -3.56556e-01
       H  1.30395e+00  2.52566e+00  1.16061e+00
       O  1.39131e+00 -2.02871e+00 -1.10775e-02
       H  1.85586e+00 -2.44039e+00 -7.50343e-01
       H  1.48317e+00 -2.60578e+00  7.56369e-01
       O  6.28135e-02  5.76235e-02 -4.44712e-01
       H  5.16905e-01  8.56550e-01 -1.37879e-02
       H  5.30158e-01 -7.86315e-01 -3.39325e-01
       O -2.46650e+00 -1.58272e-01  2.90640e-02
       H -3.12813e+00 -1.46190e-02 -6.67553e-01
       H -2.92106e+00 -4.01821e-01  8.51111e-01
       H -8.89655e-01 -5.06488e-02 -2.05242e-01
13
# CELL(abcABC):   56.20000    56.20000    56.20000    90.00000    90.00000    90.00000  Step:          18  Bead:       0 positions{angstrom}  cell{angstrom}
       O  1.07903e+00  2.31101e+00  2.44222e-01
       H  1.35474e+00  3.01999e+00 -3.44339e-01
       H  1.30009e+00  2.52789e+00  1.14901e+00
       O  1.38801e+00 -2.02957e+00 -8.86475e-03
       H  1.85800e+00 -2.43807e+00 -7.51922e-01
       H  1.47429e+00 -2.60612e+00  7.56853e-01
       O  6.51341e-02  5.62834e-02 -4.46070e-01
       H  5.16316e-01  8.54038e-01 -1.79974e-02
       H  5.34166e-01 -7.82333e-01 -3.41631e-01
       O -2.46620e+00 -1.57084e-01  2.91318e-02
       H -3.11839e+00 -5.78783e-03 -6.56179e-01
       H -2.91345e+00 -4.14835e-01  8.41249e-01
       H -8.88679e-01 -4.22179e-02 -2.07059e-01
13
# CELL(abcABC):   56.20000    56.20000    56.20000    90.00000    90.00000    90.00000  Step:          19  Bead:       0 positions{angstrom}  cell{angstrom}
       O  1.07900e+00  2.31134e+00  2.43757e-01
       H  1.35430e+00  3.01943e+00 -3.32341e-01
       H  1.29681e+00  2.53113e+00  1.13836e+00
       O  1.38474e+00 -2.03044e+00 -6.72451e-03
       H  1.86016e+00 -2.43596e+00 -7.53073e-01
       H  1.46543e+00 -2.60678e+00  7.57700e-01
       O  6.74007e-02  5.51727e-02 -4.47476e-01
       H  5.15762e-01  8.52391e-01 -2.32785e-02
       H  5.40854e-01 -7.82071e-01 -3.42744e-01
       O -2.46580e+00 -1.55900e-01  2.92274e-02
       H -3.10953e+00  3.15862e-03 -6.45414e-01
       H -2.90632e+00 -4.27934e-01  8.31612e-01
       H -8.90225e-01 -3.35049e-02 -2.08626e-01
13
# CELL(abcABC):   56.20000    56.20000    56.20000    90.00000    90.00000    90.00000  Step:          20  Bead:       0 positions{angstrom}  cell{angstrom}
       O  1.07888e+00  2.31151e+00  2.43255e-01
       H  1.35434e+00  3.01999e+00 -3.21392e-01
       H  1.29436e+00  2.53553e+00  1.13002e+00
       O  1.38150e+00 -2.03131e+00 -4.69189e-03
       H  1.86212e+00 -2.43390e+00 -7.53385e-01
       H  1.45664e+00 -2.60793e+00  7.59043e-01
       O  6.95948e-02  5.42886e-02 -4.48932e-01
       H  5.15381e-01  8.51736e-01 -2.95409e-02
       H  5.50054e-01 -7.85510e-01 -3.42616e-01
       O -2.46520e+00 -1.54719e-01  2.93739e-02
       H -3.10267e+00  1.25103e-02 -6.36445e-01
       H -2.90010e+00 -4.41391e-01  8.23004e-01
       H -8.94022e-01 -2.46728e-02 -2.10010e-01
13
# CELL(abcABC):   56.20000    56.20000    56.20000    90.00000    90.00000    90.00000  Step:          21  Bead:       0 positions{angstrom}  cell{angstrom}
       O  1.07866e+00  2.31147e+00  2.42695e-01
       H  1.35508e+00  3.02230e+00 -3.12198e-01
       H  1.29287e+00  2.54118e+00  1.12503e+00
       O  1.37832e+00 -2.03219e+00 -2.79245e-03
       H  1.86370e+00 -2.43179e+00 -7.52540e-01
       H  1.44793e+00 -2.60963e+00  7.60943e-01
       O  7.17023e-02  5.36004e-02 -4.50433e-01
       H  5.15288e-01  8.52167e-01 -3.66956e-02
       H  5.61347e-01 -7.92193e-01 -3.41242e-01
       O -2.46432e+00 -1.53541e-01  2.95904e-02
       H -3.09871e+00  2.25351e-02 -6.30225e-01
       H -2.89510e+00 -4.55452e-01  8.16064e-01
       H -8.99598e-01 -1.58724e-02 -2.11318e-01
13
# CELL(abcABC):   56.20000    56.20000    56.20000    90.00000    90.00000    90.00000  Step:          22  Bead:       0 positions{angstrom}  cell{angstrom}
       O  1.07833e+00  2.31120e+00  2.42070e-01
       H  1.35662e+00  3.02671e+00 -3.05235e-01
       H  1.29240e+00  2.54805e+00  1.12393e+00
       O  1.37518e+00 -2.03308e+00 -1.03923e-03
       H  1.86479e+00 -2.42958e+00 -7.50345e-01
       H  1.43931e+00 -2.61190e+00  7.63380e-01
       O  7.37152e-02  5.30581e-02 -4.51971e-01
       H  5.15569e-01  8.53735e-01 -4.46625e-02
       H  5.74120e-01 -8.01334e-01 -3.38646e-01
       O -2.46313e+00 -1.52364e-01  2.98852e-02
       H -3.09816e+00  3.34110e-02 -6.27257e-01
       H -2.89151e+00 -4.70287e-01  8.11147e-01
       H -9.06344e-01 -7.24515e-03 -2.12679e-01
13
# CELL(abcABC):   56.20000    56.20000    56.20000    90.00000    90.00000    90.00000  Step:          23  Bead:       0 positions{angstrom}  cell{angstrom}
       O  1.07790e+00  2.31072e+00  2.41397e-01
       H  1.35895e+00  3.03325e+00 -3.00671e-01
       H  1.29283e+00  2.55596e+00  1.12663e+00
       O  1.37211e+00 -2.03399e+00  5.68379e-04
       H  1.86537e+00 -2.42728e+00 -7.46745e-01
       H  1.43078e+00 -2.61465e+00  7.66249e-01
       O  7.56296e-02  5.26028e-02 -4.53533e-01
       H  5.16274e-01  8.56445e-01 -5.33772e-02
       H  5.87661e-01 -8.11981e-01 -3.34878e-01
       O -2.46161e+00 -1.51187e-01  3.02524e-02
       H -3.10097e+00  4.51672e-02 -6.27472e-01
       H -2.88932e+00 -4.85938e-01  8.08257e-01
       H -9.13589e-01  1.07584e-03 -2.14228e-01
13
# CELL(abcABC):   56.20000    56.20000    56.20000    90.00000    90.00000    90.00000  Step:          24  Bead:       0 positions{angstrom}  cell{angstrom}
       O  1.07739e+00  2.31008e+00  2.40706e-01
       H  1.36192e+00  3.04155e+00 -2.98365e-01
       H  1.29393e+00  2.56458e+00  1.13246e+00
       O  1.36909e+00 -2.03490e+00  2.04416e-03
       H  1.86550e+00 -2.42495e+00 -7.41825e-01
       H  1.42230e+00 -2.61774e+00  7.69376e-01
       O  7.74455e-02  5.21771e-02 -4.55105e-01
       H  5.17414e-01  8.60242e-01 -6.27948e-02
       H  6.01252e-01 -8.23161e-01 -3.29998e-01
       O -2.45981e+00 -1.50005e-01  3.06730e-02
       H -3.10659e+00  5.76630e-02 -6.30242e-01
       H -2.88837e+00 -5.02303e-01  8.07052e-01
       H -9.20665e-01  8.96497e-03 -2.16087e-01
13
# CELL(abcABC):   56.20000    56.20000    56.20000    90.00000    90.00000    90.00000  Step:          25  Bead:       0 positions{angstrom}  cell{angstrom}
       O  1.07684e+00  2.30934e+00  2.40041e-01
       H  1.36525e+00  3.05096e+00 -2.97922e-01
       H  1.29537e+00  2.57350e+00  1.14033e+00
       O  1.36613e+00 -2.03584e+00  3.41301e-03
       H  1.86530e+00 -2.42271e+00 -7.35805e-01
       H  1.41384e+00 -2.62097e+00  7.72544e-01
       O  7.91654e-02  5.17322e-02 -4.56672e-01
       H  5.18960e-01  8.65019e-01 -7.28898e-02
       H  6.14230e-01 -8.33995e-01 -3.24076e-01
       O -2.45782e+00 -1.48814e-01  3.11202e-02
       H -3.11408e+00  7.06104e-02 -6.34544e-01
       H -2.88834e+00 -5.19140e-01  8.06913e-01
       H -9.26956e-01  1.63050e-02 -2.18359e-01
13
# CELL(abcABC):   56.20000    56.20000    56.20000    90.00000    90.00000    90.00000  Step:          26  Bead:       0 positions{angstrom}  cell{angstrom}
       O  1.07629e+00  2.30859e+00  2.39446e-01
       H  1.36863e+00  3.06063e+00 -2.98793e-01
       H  1.29679e+00  2.58224e+00  1.14893e+00
       O  1.36321e+00 -2.03679e+00  4.70773e-03
       H  1.86498e+00 -2.42072e+00 -7.29007e-01
       H  1.40537e+00 -2.62412e+00  7.75521e-01
       O  8.07942e-02  5.12315e-02 -4.58220e-01
       H  5.20845e-01  8.70618e-01 -8.36537e-02
       H  6.26030e-01 -8.43751e-01 -3.17186e-01
       O -2.45573e+00 -1.47609e-01  3.15667e-02
       H -3.12233e+00  8.36317e-02 -6.39185e-01
       H -2.88885e+00 -5.36103e-01  8.07065e-01
       H -9.31935e-01  2.29888e-02 -2.21119e-01
13
# CELL(abcABC):   56.20000    56.20000    56.20000    90.00000    90.00000    90.00000  Step:          27  Bead:       0 positions{angstrom}  cell{angstrom}
       O  1.07580e+00  2.30793e+00  2.38961e-01
       H  1.37168e+00  3.06966e+00 -3.00385e-01
       H  1.29785e+00  2.59034e+00  1.15702e+00
       O  1.36031e+00 -2.03777e+00  5.96491e-03
       H  1.86478e+00 -2.41917e+00 -7.21825e-01
       H  1.39685e+00 -2.62699e+00  7.78095e-01
       O  8.23390e-02  5.06513e-02 -4.59737e-01
       H  5.22977e-01  8.76838e-01 -9.50878e-02
       H  6.36198e-01 -8.51862e-01 -3.09409e-01
       O -2.45363e+00 -1.46389e-01  3.19893e-02
       H -3.13025e+00  9.63235e-02 -6.43005e-01
       H -2.88947e+00 -5.52795e-01  8.06697e-01
       H -9.35182e-01  2.89208e-02 -2.24413e-01
13
# CELL(abcABC):   56.20000    56.20000    56.20000    90.00000    90.00000    90.00000  Step:          28  Bead:       0 positions{angstrom}  cell{angstrom}
       O  1.07540e+00  2.30742e+00  2.38618e-01
       H  1.37410e+00  3.07722e+00 -3.02147e-01
       H  1.29826e+00  2.59740e+00  1.16349e+00
       O  1.35743e+00 -2.03876e+00  7.22034e-03
       H  1.86496e+00 -2.41824e+00 -7.14667e-01
       H  1.38827e+00 -2.62941e+00  7.80100e-01
       O  8.38095e-02  4.99798e-02 -4.61211e-01
       H  5.25244e-01  8.83456e-01 -1.07196e-01
       H  6.44393e-01 -8.57920e-01 -3.00838e-01
       O -2.45161e+00 -1.45155e-01  3.23715e-02
       H -3.13689e+00  1.08313e-01 -6.45024e-01
       H -2.88982e+00 -5.68819e-01  8.05075e-01
       H -9.36398e-01  3.40190e-02 -2.28256e-01
13
# CELL(abcABC):   56.20000    56.20000    56.20000    90.00000    90.00000    90.00000  Step:          29  Bead:       0 positions{angstrom}  cell{angstrom}
       O  1.07511e+00  2.30714e+00  2.38436e-01
       H  1.37561e+00  3.08264e+00 -3.03635e-01
       H  1.29780e+00  2.60309e+00  1.16756e+00
       O  1.35455e+00 -2.03976e+00  8.50429e-03
       H  1.86575e+00 -2.41809e+00 -7.07908e-01
       H  1.37959e+00 -2.63126e+00  7.81439e-01
       O  8.52182e-02  4.92145e-02 -4.62635e-01
       H  5.27526e-01  8.90238e-01 -1.19973e-01
       H  6.50377e-01 -8.61659e-01 -2.91578e-01
       O -2.44973e+00 -1.43907e-01  3.27037e-02
       H -3.14154e+00  1.19293e-01 -6.44519e-01
       H -2.88957e+00 -5.83830e-01  8.01617e-01
       H -9.35407e-01  3.82166e-02 -2.32634e-01
13
# CELL(abcABC):   56.20000    56.20000    56.20000    90.00000    90.00000    90.00000  Step:          30  Bead:       0 positions{angstrom}  cell{angstrom}
       O  1.07497e+00  2.30714e+00  2.38424e-01
       H  1.37604e+00  3.08547e+00 -3.04549e-01
       H  1.29634e+00  2.60719e+00  1.16872e+00
       O  1.35166e+00 -2.04076e+00  9.83737e-03
       H  1.86732e+00 -2.41882e+00 -7.01829e-01
       H  1.37082e+00 -2.63251e+00  7.82091e-01
       O  8.65804e-02  4.83605e-02 -4.64001e-01
       H  5.29704e-01  8.96958e-01 -1.33402e-01
       H  6.54005e-01 -8.62933e-01 -2.81743e-01
       O -2.44804e+00 -1.42648e-01  3.29820e-02
       H -3.14372e+00  1.29051e-01 -6.41050e-01
       H -2.88850e+00 -5.97562e-01  7.95937e-01
       H -9.32163e-01  4.14634e-02 -2.37507e-01
13
# CELL(abcABC):   56.20000    56.20000    56.20000    90.00000    90.00000    90.00000  Step:          31  Bead:       0 positions{angstrom}  cell{angstrom}
       O  1.07498e+00  2.30742e+00  2.38580e-01
       H  1.37532e+00  3.08546e+00 -3.04747e-01
       H  1.29384e+00  2.60959e+00  1.16683e+00
       O  1.34876e+00 -2.04177e+00  1.12276e-02
       H  1.86976e+00 -2.42046e+00 -6.96575e-01
       H  1.36196e+00 -2.63316e+00  7.82120e-01
       O  8.79151e-02  4.74284e-02 -4.65309e-01
       H  5.31674e-01  9.03411e-01 -1.47442e-01
       H  6.55223e-01 -8.61703e-01 -2.71463e-01
       O -2.44656e+00 -1.41381e-01  3.32070e-02
       H -3.14325e+00  1.37479e-01 -6.34469e-01
       H -2.88650e+00 -6.09864e-01  7.87867e-01
       H -9.26757e-01  4.37271e-02 -2.42807e-01
13
# CELL(abcABC):   56.20000    56.20000    56.20000    90.00000    90.00000    90.00000  Step:          32  Bead:       0 positions{angstrom}  cell{angstrom}
       O  1.07513e+00  2.30799e+00  2.38890e-01
       H  1.37344e+00  3.08265e+00 -3.04254e-01
       H  1.29031e+00  2.61028e+00  1.16206e+00
       O  1.34583e+00 -2.04277e+00  1.26696e-02
       H  1.87303e+00 -2.42297e+00 -6.92139e-01
       H  1.35303e+00 -2.63334e+00  7.81667e-01
       O  8.92441e-02  4.64327e-02 -4.66559e-01
       H  5.33351e-01  9.09430e-01 -1.62026e-01
       H  6.54058e-01 -8.58021e-01 -2.60871e-01
       O -2.44529e+00 -1.40108e-01  3.33837e-02
       H -3.14023e+00  1.44587e-01 -6.24912e-01
       H -2.88355e+00 -6.20710e-01  7.77464e-01
       H -9.19419e-01  4.49939e-02 -2.48440e-01
13
# CELL(abcABC):   56.20000    56.20000    56.20000    90.00000    90.00000    90.00000  Step:          33  Bead:       0 positions{angstrom}  cell{angstrom}
       O  1.07541e+00  2.30883e+00  2.39328e-01
       H  1.37051e+00  3.07730e+00 -3.03257e-01
       H  1.28587e+00  2.60939e+00  1.15493e+00
       O  1.34291e+00 -2.04377e+00  1.41454e-02
       H  1.87699e+00 -2.42621e+00 -6.88362e-01
       H  1.34403e+00 -2.63319e+00  7.80932e-01
       O  9.05926e-02  4.53908e-02 -4.67756e-01
       H  5.34674e-01  9.14885e-01 -1.77063e-01
       H  6.50615e-01 -8.52027e-01 -2.50101e-01
       O -2.44421e+00 -1.38830e-01  3.35209e-02
       H -3.13500e+00  1.50510e-01 -6.12796e-01
       H -2.87976e+00 -6.30215e-01  7.65003e-01
       H -9.10527e-01  4.52695e-02 -2.54292e-01
13
# CELL(abcABC):   56.20000    56.20000    56.20000    90.00000    90.00000    90.00000  Step:          34  Bead:       0 positions{angstrom}  cell{angstrom}
       O  1.07579e+00  2.30988e+00  2.39859e-01
       H  1.36674e+00  3.06992e+00 -3.02097e-01
       H  1.28071e+00  2.60714e+00  1.14628e+00
       O  1.33998e+00 -2.04476e+00  1.56284e-02
       H  1.88140e+00 -2.43001e+00 -6.84968e-01
       H  1.33501e+00 -2.63291e+00  7.80155e-01
       O  9.19880e-02  4.43229e-02 -4.68911e-01
       H  5.35610e-01  9.19695e-01 -1.92434e-01
       H  6.45084e-01 -8.43949e-01 -2.39281e-01
       O -2.44325e+00 -1.37548e-01  3.36319e-02
       H -3.12821e+00  1.55520e-01 -5.98802e-01
       H -2.87533e+00 -6.38638e-01  7.50957e-01
       H -9.00599e-01  4.45792e-02 -2.60224e-01
13
# CELL(abcABC):   56.20000    56.20000    56.20000    90.00000    90.00000    90.00000  Step:          35  Bead:       0 positions{angstrom}  cell{angstrom}
       O  1.07625e+00  2.31109e+00  2.40439e-01
       H  1.36240e+00  3.06122e+00 -3.01247e-01
       H  1.27507e+00  2.60387e+00  1.13721e+00
       O  1.33707e+00 -2.04575e+00  1.70875e-02
       H  1.88598e+00 -2.43413e+00 -6.81612e-01
       H  1.32598e+00 -2.63274e+00  7.79577e-01
       O  9.34588e-02  4.32519e-02 -4.70036e-01
       H  5.36157e-01  9.23825e-01 -2.07995e-01
       H  6.37738e-01 -8.34105e-01 -2.28516e-01
       O -2.44236e+00 -1.36264e-01  3.37345e-02
       H -3.12072e+00  1.60019e-01 -5.83844e-01
       H -2.87057e+00 -6.46370e-01  7.35962e-01
       H -8.90282e-01  4.29670e-02 -2.66085e-01
13
# CELL(abcABC):   56.20000    56.20000    56.20000    90.00000    90.00000    90.00000  Step:          36  Bead:       0 positions{angstrom}  cell{angstrom}
       O  1.07674e+00  2.31236e+00  2.41017e-01
       H  1.35781e+00  3.05205e+00 -3.01268e-01
       H  1.26923e+00  2.60000e+00  1.12901e+00
       O  1.33420e+00 -2.04674e+00  1.84929e-02
       H  1.89043e+00 -2.43834e+00 -6.77932e-01
       H  1.31698e+00 -2.63286e+00  7.79414e-01
       O  9.50317e-02  4.22039e-02 -4.71149e-01
       H  5.36334e-01  9.27284e-01 -2.23586e-01
       H  6.28938e-01 -8.22910e-01 -2.17880e-01
       O -2.44144e+00 -1.34979e-01  3.38500e-02
       H -3.11360e+00  1.64522e-01 -5.69001e-01
       H -2.86582e+00 -6.53912e-01  7.20761e-01
       H -8.80313e-01  4.04951e-02 -2.71714e-01
13
# CELL(abcABC):   56.20000    56.20000    56.20000    90.00000    90.00000    90.00000  Step:          37  Bead:       0 positions{angstrom}  cell{angstrom}
       O  1.07722e+00  2.31360e+00  2.41542e-01
       H  1.35334e+00  3.04332e+00 -3.02741e-01
       H  1.26350e+00  2.59595e+00  1.12297e+00
       O  1.33137e+00 -2.04773e+00  1.98208e-02
       H  1.89446e+00 -2.44244e+00 -6.73604e-01
       H  1.30803e+00 -2.63345e+00  7.79821e-01
       O  9.67279e-02  4.12085e-02 -4.72271e-01
       H  5.36190e-01  9.30119e-01 -2.39029e-01
       H  6.19131e-01 -8.10877e-01 -2.07405e-01
       O -2.44040e+00 -1.33696e-01  3.40011e-02
       H -3.10799e+00  1.69603e-01 -5.55391e-01
       H -2.86146e+00 -6.61824e-01  7.06122e-01
       H -8.71469e-01  3.72417e-02 -2.76959e-01
13
# CELL(abcABC):   56.20000    56.20000    56.20000    90.00000    90.00000    90.00000  Step:          38  Bead:       0 positions{angstrom}  cell{angstrom}
       O  1.07766e+00  2.31475e+00  2.41972e-01