13
# CELL(abcABC):   56.20000    56.20000    56.20000    90.00000    90.00000    90.00000  Step:           0  Bead:       0 velocities{atomic_unit}  cell{angstrom}
       O  5.53691e-05  1.67472e-04 -9.23956e-05
       H -3.49131e-04 -2.90291e-04  5.53164e-04
       H -9.77071e-04 -1.14899e-03 -4.57494e-04
       O -3.40588e-04 -1.14761e-05  2.38357e-04
       H  2.51344e-04 -3.42649e-05  1.15782e-05
       H -3.94544e-04 -4.64351e-04 -2.43168e-04
       O  2.36046e-04  7.57395e-05 -1.82948e-04
       H  6.73186e-04 -5.66821e-04  9.23903e-04
       H  4.22406e-05 -1.67950e-03 -5.75741e-04
       O  4.89057e-05  1.22683e-04 -2.26535e-05
       H  5.91821e-04  1.02248e-03  1.05228e-03
       H  4.29900e-04 -1.45880e-03 -5.41679e-04
       H -2.63497e-04 -1.00527e-03  2.23842e-04
13
# CELL(abcABC):   56.20000    56.20000    56.20000    90.00000    90.00000    90.00000  Step:           1  Bead:       0 velocities{atomic_unit}  cell{angstrom}
       O  5.27921e-05  1.63328e-04 -9.37375e-05
       H -3.33485e-04 -2.50816e-04  5.04630e-04
       H -9.53633e-04 -1.12863e-03 -3.85555e-04
       O -3.39916e-04 -1.20350e-05  2.36452e-04
       H  2.41393e-04 -1.80074e-05  1.34275e-05
       H -3.99340e-04 -4.66888e-04 -2.16925e-04
       O  2.35751e-04  7.23100e-05 -1.83277e-04
       H  6.91429e-04 -5.18909e-04  9.31669e-04
       H  5.43699e-05 -1.68109e-03 -5.77591e-04
       O  5.32977e-05  1.22569e-04 -2.14060e-05
       H  5.44010e-04  1.02139e-03  9.76655e-04
       H  4.14629e-04 -1.45674e-03 -4.86224e-04
       H -2.89914e-04 -9.95227e-04  2.23555e-04
13
# CELL(abcABC):   56.20000    56.20000    56.20000    90.00000    90.00000    90.00000  Step:           2  Bead:       0 velocities{atomic_unit}  cell{angstrom}
       O  4.56135e-05  1.51631e-04 -9.76213e-05
       H -2.86534e-04 -1.40086e-04  3.93132e-04
       H -8.86390e-04 -1.06069e-03 -2.03861e-04
       O -3.37792e-04 -1.40687e-05  2.30982e-04
       H  2.09395e-04  2.61532e-05  4.71005e-05
       H -4.06701e-04 -4.74493e-04 -1.69847e-04
       O  2.34760e-04  6.22890e-05 -1.81781e-04
       H  6.98371e-04 -4.72812e-04  9.31426e-04
       H  3.41603e-05 -1.60044e-03 -5.90178e-04
       O  6.56387e-05  1.22283e-04 -1.76031e-05
       H  4.04703e-04  1.02044e-03  7.85756e-04
       H  3.65747e-04 -1.45455e-03 -3.55510e-04
       H -2.63235e-04 -9.56891e-04  2.09986e-04
13
# CELL(abcABC):   56.20000    56.20000    56.20000    90.00000    90.00000    90.00000  Step:           3  Bead:       0 velocities{atomic_unit}  cell{angstrom}
       O  3.47228e-05  1.33658e-04 -1.03526e-04
       H -2.13343e-04  3.03729e-05  2.31885e-04
       H -7.84528e-04 -9.54075e-04  6.61467e-05
       O -3.34372e-04 -1.74646e-05  2.22691e-04
       H  1.59004e-04  9.31136e-05  1.06225e-04
       H -4.17424e-04 -4.84317e-04 -1.07576e-04
       O  2.33005e-04  4.67718e-05 -1.78650e-04
       H  6.92250e-04 -4.32926e-04  9.20985e-04
       H -1.06664e-05 -1.44878e-03 -6.09352e-04
       O  8.43733e-05  1.21816e-04 -1.14718e-05
       H  1.90074e-04  1.02283e-03  5.01048e-04
       H  2.91800e-04 -1.45518e-03 -1.67313e-04
       H -1.88587e-04 -8.91476e-04  1.84269e-04
13
# CELL(abcABC):   56.20000    56.20000    56.20000    90.00000    90.00000    90.00000  Step:           4  Bead:       0 velocities{atomic_unit}  cell{angstrom}
       O  2.16134e-05  1.11637e-04 -1.10362e-04
       H -1.23117e-04  2.38603e-04  4.45581e-05
       H -6.62810e-04 -8.22570e-04  3.83410e-04
       O -3.29915e-04 -2.20604e-05  2.12622e-04
       H  9.58340e-05  1.75683e-04  1.81598e-04
       H -4.32388e-04 -4.92440e-04 -3.75253e-05
       O  2.30556e-04  2.69893e-05 -1.74124e-04
       H  6.72130e-04 -4.02303e-04  8.98402e-04
       H -7.22639e-05 -1.23934e-03 -6.31131e-04
       O  1.06569e-04  1.21159e-04 -3.82189e-06
       H -6.67514e-05  1.03050e-03  1.63552e-04
       H  2.06181e-04 -1.46029e-03  5.03110e-05
       H -7.43509e-05 -8.01348e-04  1.48223e-04
13
# CELL(abcABC):   56.20000    56.20000    56.20000    90.00000    90.00000    90.00000  Step:           5  Bead:       0 velocities{atomic_unit}  cell{angstrom}
       O  8.11049e-06  8.83683e-05 -1.16685e-04
       H -2.77724e-05  4.55507e-04 -1.38539e-04
       H -5.38647e-04 -6.81981e-04  6.94540e-04
       O -3.24759e-04 -2.76489e-05  2.01969e-04
       H  2.67694e-05  2.65459e-04  2.62424e-04
       H -4.52341e-04 -4.94551e-04  3.21969e-05
       O  2.27602e-04  4.17017e-06 -1.68470e-04
       H  6.37987e-04 -3.82450e-04  8.62225e-04
       H -1.43517e-04 -9.85772e-04 -6.52108e-04
       O  1.28446e-04  1.20326e-04  4.12292e-06
       H -3.21651e-04  1.04317e-03 -1.73534e-04
       H  1.24715e-04 -1.46959e-03  2.63673e-04
       H  6.90508e-05 -6.89784e-04  1.04124e-04
13
# CELL(abcABC):   56.20000    56.20000    56.20000    90.00000    90.00000    90.00000  Step:           6  Bead:       0 velocities{atomic_unit}  cell{angstrom}
       O -4.03028e-06  6.66312e-05 -1.21088e-04
       H  6.04165e-05  6.50639e-04 -2.86779e-04
       H -4.28055e-04 -5.46545e-04  9.46300e-04
       O -3.19294e-04 -3.39754e-05  1.91936e-04
       H -4.07104e-05  3.53653e-04  3.37449e-04
       H -4.77699e-04 -4.86729e-04  9.39698e-05
       O  2.24402e-04 -2.05286e-05 -1.61970e-04
       H  5.90735e-04 -3.73351e-04  8.11668e-04
       H -2.18280e-04 -7.01385e-04 -6.69574e-04
       O  1.46268e-04  1.19355e-04  1.11171e-05
       H -5.30476e-04  1.05821e-03 -4.57599e-04
       H  6.24253e-05 -1.48078e-03  4.39996e-04
       H  2.30100e-04 -5.60782e-04  5.45093e-05
13
# CELL(abcABC):   56.20000    56.20000    56.20000    90.00000    90.00000    90.00000  Step:           7  Bead:       0 velocities{atomic_unit}  cell{angstrom}
       O -1.34874e-05  4.86265e-05 -1.22570e-04
       H  1.31260e-04  7.98439e-04 -3.75758e-04
       H -3.42271e-04 -4.26166e-04  1.09805e-03
       O -3.13938e-04 -4.07339e-05  1.83606e-04
       H -9.91883e-05  4.31849e-04  3.95994e-04
       H -5.08383e-04 -4.66162e-04  1.41693e-04
       O  2.21246e-04 -4.60357e-05 -1.54922e-04
       H  5.32129e-04 -3.73662e-04  7.46689e-04
       H -2.91190e-04 -3.99117e-04 -6.81486e-04
       O  1.57229e-04  1.18302e-04  1.62836e-05
       H -6.60032e-04  1.07145e-03 -6.49046e-04
       H  3.05254e-05 -1.49019e-03  5.53639e-04
       H  3.96819e-04 -4.18830e-04  2.04803e-06
13
# CELL(abcABC):   56.20000    56.20000    56.20000    90.00000    90.00000    90.00000  Step:           8  Bead:       0 velocities{atomic_unit}  cell{angstrom}
       O -1.95632e-05  3.56453e-05 -1.20722e-04
       H  1.78300e-04  8.82609e-04 -3.91611e-04
       H -2.86344e-04 -3.25493e-04  1.12893e-03
       O -3.09103e-04 -4.75763e-05  1.77826e-04
       H -1.41996e-04  4.92726e-04  4.28989e-04
       H -5.43742e-04 -4.31675e-04  1.71515e-04
       O  2.18418e-04 -7.13436e-05 -1.47640e-04
       H  4.64602e-04 -3.81035e-04  6.67977e-04
       H -3.57299e-04 -9.18697e-05 -6.86339e-04
       O  1.59944e-04  1.17210e-04  1.92925e-05
       H -6.94140e-04  1.07855e-03 -7.27979e-04
       H  3.46584e-05 -1.49377e-03  5.89933e-04
       H  5.57129e-04 -2.68710e-04 -5.05322e-05
13
# CELL(abcABC):   56.20000    56.20000    56.20000    90.00000    90.00000    90.00000  Step:           9  Bead:       0 velocities{atomic_unit}  cell{angstrom}
       O -2.21717e-05  2.80335e-05 -1.15678e-04
       H  1.99257e-04  8.97509e-04 -3.32025e-04
       H -2.59747e-04 -2.44682e-04  1.03823e-03
       O -3.05146e-04 -5.41415e-05  1.75117e-04
       H -1.63960e-04  5.30800e-04  4.30062e-04
       H -5.82574e-04 -3.83967e-04  1.82155e-04
       O  2.16165e-04 -9.54680e-05 -1.40453e-04
       H  3.91067e-04 -3.92459e-04  5.76860e-04
       H -4.11633e-04  2.06949e-04 -6.83001e-04
       O  1.54446e-04  1.16105e-04  2.02859e-05
       H -6.33390e-04  1.07618e-03 -6.93778e-04
       H  7.46921e-05 -1.48815e-03  5.45946e-04
       H  6.99073e-04 -1.15322e-04 -1.00493e-04
13
# CELL(abcABC):   56.20000    56.20000    56.20000    90.00000    90.00000    90.00000  Step:          10  Bead:       0 velocities{atomic_unit}  cell{angstrom}
       O -2.16948e-05  2.53670e-05 -1.07952e-04
       H  1.95484e-04  8.46963e-04 -2.04531e-04
       H -2.58080e-04 -1.80948e-04  8.41039e-04
       O -3.02321e-04 -6.01017e-05  1.75609e-04
       H -1.62165e-04  5.43122e-04  3.96622e-04
       H -6.23225e-04 -3.25570e-04  1.74867e-04
       O  2.14673e-04 -1.17407e-04 -1.33705e-04
       H  3.14722e-04 -4.04580e-04  4.75183e-04
       H -4.48816e-04  4.82896e-04 -6.70550e-04
       O  1.41858e-04  1.14994e-04  1.96718e-05
       H -4.90807e-04  1.06255e-03 -5.60171e-04
       H  1.45703e-04 -1.47126e-03  4.28829e-04
       H  8.11044e-04  3.64813e-05 -1.45140e-04
13
# CELL(abcABC):   56.20000    56.20000    56.20000    90.00000    90.00000    90.00000  Step:          11  Bead:       0 velocities{atomic_unit}  cell{angstrom}
       O -1.88056e-05  2.67018e-05 -9.82563e-05
       H  1.70965e-04  7.41794e-04 -2.35557e-05
       H -2.74858e-04 -1.30033e-04  5.62479e-04
       O -3.00725e-04 -6.52130e-05  1.78997e-04
       H -1.36601e-04  5.29801e-04  3.30728e-04
       H -6.63760e-04 -2.60568e-04  1.53110e-04
       O  2.14030e-04 -1.36115e-04 -1.27746e-04
       H  2.38862e-04 -4.13978e-04  3.65166e-04
       H -4.62821e-04  7.20171e-04 -6.48129e-04
       O  1.23971e-04  1.13885e-04  1.79289e-05
       H -2.86668e-04  1.03760e-03 -3.49394e-04
       H  2.39464e-04 -1.44270e-03  2.53072e-04
       H  8.82226e-04  1.82079e-04 -1.81937e-04
13
# CELL(abcABC):   56.20000    56.20000    56.20000    90.00000    90.00000    90.00000  Step:          12  Bead:       0 velocities{atomic_unit}  cell{angstrom}
       O -1.43233e-05  3.07963e-05 -8.73837e-05
       H  1.31323e-04  5.97306e-04  1.92435e-04
       H -3.02815e-04 -8.72014e-05  2.32944e-04
       O -3.00268e-04 -6.93524e-05  1.84555e-04
       H -9.04959e-05  4.94153e-04  2.39431e-04
       H -7.02154e-04 -1.94143e-04  1.22006e-04
       O  2.14185e-04 -1.50511e-04 -1.22911e-04
       H  1.66714e-04 -4.17393e-04  2.49262e-04
       H -4.46984e-04  9.01747e-04 -6.14850e-04
       O  1.02907e-04  1.12793e-04  1.54952e-05
       H -4.45248e-05  1.00273e-03 -8.77039e-05
       H  3.45854e-04 -1.40377e-03  3.77948e-05
       H  9.03375e-04  3.17293e-04 -2.08699e-04
13
# CELL(abcABC):   56.20000    56.20000    56.20000    90.00000    90.00000    90.00000  Step:          13  Bead:       0 velocities{atomic_unit}  cell{angstrom}
       O -9.12052e-06  3.62648e-05 -7.61472e-05
       H  8.30782e-05  4.31325e-04  4.23079e-04
       H -3.34626e-04 -4.77190e-05 -1.14923e-04
       O -3.00673e-04 -7.25277e-05  1.91203e-04
       H -3.01040e-05  4.42304e-04  1.34242e-04
       H -7.36504e-04 -1.32027e-04  8.77041e-05
       O  2.14919e-04 -1.59544e-04 -1.19498e-04
       H  1.01283e-04 -4.11911e-04  1.30021e-04
       H -3.94445e-04  1.01035e-03 -5.69784e-04
       O  8.09075e-05  1.11749e-04  1.27444e-05
       H  2.11039e-04  9.60671e-04  1.97176e-04
       H  4.53968e-04 -1.35734e-03 -1.95427e-04
       H  8.68005e-04  4.38631e-04 -2.23880e-04
13
# CELL(abcABC):   56.20000    56.20000    56.20000    90.00000    90.00000    90.00000  Step:          14  Bead:       0 velocities{atomic_unit}  cell{angstrom}
       O -4.07311e-06  4.16688e-05 -6.53679e-05
       H  3.31697e-05  2.62905e-04  6.47518e-04
       H -3.63224e-04 -7.00406e-06 -4.47836e-04
       O -3.01519e-04 -7.48523e-05  1.97649e-04
       H  3.61645e-05  3.82175e-04  2.95824e-05
       H -7.65219e-04 -7.98825e-05  5.66577e-05
       O  2.15819e-04 -1.62331e-04 -1.17724e-04
       H  4.52086e-05 -3.95119e-04  9.98041e-06
       H -2.99223e-04  1.03059e-03 -5.12068e-04
       O  6.02302e-05  1.10796e-04  1.00177e-05
       H  4.55299e-04  9.15296e-04  4.77133e-04
       H  5.52890e-04 -1.30770e-03 -4.24125e-04
       H  7.73874e-04  5.43521e-04 -2.26926e-04
13
# CELL(abcABC):   56.20000    56.20000    56.20000    90.00000    90.00000    90.00000  Step:          15  Bead:       0 velocities{atomic_unit}  cell{angstrom}
       O -2.95358e-08  4.55747e-05 -5.58701e-05
       H -1.13785e-05  1.11391e-04  8.45373e-04
       H -3.81961e-04  3.93527e-05 -7.32899e-04
       O -3.02317e-04 -7.64995e-05  2.02579e-04
       H  9.91319e-05  3.22077e-04 -5.95344e-05
       H -7.87189e-04 -4.26425e-05  3.48273e-05
       O  2.16314e-04 -1.58379e-04 -1.17685e-04
       H  6.38245e-07 -3.65222e-04 -1.08445e-04
       H -1.58015e-04  9.52482e-04 -4.41166e-04
       O  4.30892e-05  1.09975e-04  7.67749e-06
       H  6.63700e-04  8.71607e-04  7.24112e-04
       H  6.32293e-04 -1.26029e-03 -6.26231e-04
       H  6.24441e-04  6.30466e-04 -2.18610e-04
13
# CELL(abcABC):   56.20000    56.20000    56.20000    90.00000    90.00000    90.00000  Step:          16  Bead:       0 velocities{atomic_unit}  cell{angstrom}
       O  2.22546e-06  4.66200e-05 -4.84551e-05
       H -4.38091e-05 -4.57276e-06  9.97741e-04
       H -3.84849e-04  9.54886e-05 -9.39013e-04
       O -3.02601e-04 -7.76525e-05  2.04868e-04
       H  1.50444e-04  2.69239e-04 -1.20063e-04
       H -8.01900e-04 -2.38675e-05  2.68933e-05
       O  2.15772e-04 -1.47848e-04 -1.19310e-04
       H -3.08869e-05 -3.21140e-04 -2.23061e-04
       H  2.75010e-05  7.75798e-04 -3.57238e-04
       O  3.15770e-05  1.09315e-04  6.14965e-06
       H  8.12417e-04  8.35587e-04  9.10859e-04
       H  6.83076e-04 -1.22134e-03 -7.81482e-04
       H  4.29723e-04  6.99050e-04 -2.01206e-04
13
# CELL(abcABC):   56.20000    56.20000    56.20000    90.00000    90.00000    90.00000  Step:          17  Bead:       0 velocities{atomic_unit}  cell{angstrom}
       O  2.03670e-06  4.36261e-05 -4.38185e-05
       H -5.81682e-05 -6.85329e-05  1.08860e-03
       H -3.67089e-04  1.64896e-04 -1.03959e-03
       O -3.02005e-04 -7.84731e-05  2.03759e-04
       H  1.83935e-04  2.28685e-04 -1.43041e-04
       H -8.09500e-04 -2.51745e-05  3.55261e-05
       O  2.13656e-04 -1.31761e-04 -1.22341e-04
       H -4.85293e-05 -2.62584e-04 -3.31996e-04
       H  2.48606e-04  5.13767e-04 -2.61489e-04
       O  2.75096e-05  1.08815e-04  5.92250e-06
       H  8.79958e-04  8.13825e-04  1.01284e-03
       H  6.98195e-04 -1.19726e-03 -8.73310e-04
       H  2.05985e-04  7.49758e-04 -1.78374e-04
13
# CELL(abcABC):   56.20000    56.20000    56.20000    90.00000    90.00000    90.00000  Step:          18  Bead:       0 velocities{atomic_unit}  cell{angstrom}
       O -1.01340e-06  3.57850e-05 -4.24010e-05
       H -5.01524e-05 -6.85269e-05  1.10687e-03
       H -3.25977e-04  2.49663e-04 -1.01698e-03
       O -3.00312e-04 -7.90959e-05  1.98975e-04
       H  1.96447e-04  2.02691e-04 -1.24750e-04
       H -8.10782e-04 -4.58272e-05  6.08256e-05
       O  2.09683e-04 -1.12029e-04 -1.26355e-04
       H -5.22306e-05 -1.90117e-04 -4.33820e-04
       H  4.88921e-04  1.93992e-04 -1.56308e-04
       O  3.21505e-05  1.08436e-04  7.46760e-06
       H  8.50428e-04  8.12621e-04  1.01195e-03
       H  6.73742e-04 -1.19363e-03 -8.91307e-04
       H -2.60572e-05  7.83650e-04 -1.54691e-04
13
# CELL(abcABC):   56.20000    56.20000    56.20000    90.00000    90.00000    90.00000  Step:          19  Bead:       0 velocities{atomic_unit}  cell{angstrom}
       O -6.96396e-06  2.29130e-05 -4.41891e-05
       H -1.82167e-05 -6.22332e-08  1.04891e-03
       H -2.62065e-04  3.49331e-04 -8.68146e-04
       O -2.97469e-04 -7.96401e-05  1.90743e-04
       H  1.88017e-04  1.90832e-04 -6.68477e-05
       H -8.07090e-04 -8.26343e-05  1.00128e-04
       O  2.03897e-04 -9.11853e-05 -1.30817e-04
       H -4.27532e-05 -1.05206e-04 -5.27659e-04
       H  7.26244e-04 -1.45225e-04 -4.50259e-05
       O  4.58264e-05  1.08125e-04  1.10674e-05
       H  7.18428e-04  8.36411e-04  9.02022e-04
       H  6.10119e-04 -1.21388e-03 -8.33955e-04
       H -2.44254e-04  8.01994e-04 -1.34892e-04
13
# CELL(abcABC):   56.20000    56.20000    56.20000    90.00000    90.00000    90.00000  Step:          20  Bead:       0 velocities{atomic_unit}  cell{angstrom}
       O -1.53475e-05  5.70114e-06 -4.85394e-05
       H  3.53443e-05  1.31002e-04  9.20711e-04
       H -1.80151e-04  4.59708e-04 -6.09608e-04
       O -2.93579e-04 -8.02216e-05  1.79736e-04
       H  1.61556e-04  1.90446e-04  2.43280e-05
       H -8.00141e-04 -1.30216e-04  1.48258e-04
       O  1.96628e-04 -7.18683e-05 -1.35169e-04
       H -2.16869e-05 -1.02564e-05 -6.13295e-04
       H  9.36754e-04 -4.62697e-04  6.86825e-05
       O  6.75489e-05  1.07845e-04  1.65942e-05
       H  4.94205e-04  8.85704e-04  6.94324e-04
       H  5.12890e-04 -1.25786e-03 -7.10681e-04
       H -4.28438e-04  8.05986e-04 -1.23067e-04
13
# CELL(abcABC):   56.20000    56.20000    56.20000    90.00000    90.00000    90.00000  Step:          21  Bead:       0 velocities{atomic_unit}  cell{angstrom}
       O -2.51525e-05 -1.41670e-05 -5.41612e-05
       H  1.03869e-04  3.07062e-04  7.38539e-04
       H -8.93731e-05  5.72330e-04 -2.78423e-04
       O -2.88872e-04 -8.09539e-05  1.66964e-04
       H  1.22228e-04  1.97285e-04  1.38926e-04
       H -7.91796e-04 -1.81668e-04  1.98258e-04
       O  1.88345e-04 -5.62427e-05 -1.38916e-04
       H  8.60419e-06  9.13889e-05 -6.91210e-04
       H  1.10004e-03 -7.23331e-04  1.81489e-04
       O  9.48621e-05  1.07628e-04  2.33711e-05
       H  2.06052e-04  9.55378e-04  4.19982e-04
       H  3.92775e-04 -1.32083e-03 -5.42017e-04
       H -5.63233e-04  7.96622e-04 -1.22023e-04
13
# CELL(abcABC):   56.20000    56.20000    56.20000    90.00000    90.00000    90.00000  Step:          22  Bead:       0 velocities{atomic_unit}  cell{angstrom}
       O -3.49475e-05 -3.41704e-05 -5.93397e-05
       H  1.76932e-04  5.00401e-04  5.26936e-04
       H -1.86550e-06  6.75275e-04  7.33744e-05
       O -2.83674e-04 -8.19311e-05  1.53624e-04
       H  7.67016e-05  2.06201e-04  2.64925e-04
       H -7.83809e-04 -2.29543e-04  2.42520e-04
       O  1.79515e-04 -4.56010e-05 -1.41685e-04
       H  4.51047e-05  1.95549e-04 -7.62524e-04
       H  1.20284e-03 -9.04494e-04  2.90888e-04
       O  1.24137e-04  1.07580e-04  3.02614e-05
       H -1.03091e-04  1.03452e-03  1.25821e-04
       H  2.64349e-04 -1.39351e-03 -3.56881e-04
       H -6.39543e-04  7.74711e-04 -1.33003e-04
13
# CELL(abcABC):   56.20000    56.20000    56.20000    90.00000    90.00000    90.00000  Step:          23  Bead:       0 velocities{atomic_unit}  cell{angstrom}
       O -4.31660e-05 -5.14137e-05 -6.23658e-05
       H  2.42242e-04  6.78215e-04  3.14037e-04
       H  6.98751e-05  7.55482e-04  3.90245e-04
       O -2.78378e-04 -8.32011e-05  1.40943e-04
       H  3.23899e-05  2.11771e-04  3.89455e-04
       H -7.77607e-04 -2.66967e-04  2.74068e-04
       O  1.70513e-04 -4.02728e-05 -1.43245e-04
       H  8.43558e-05  2.97422e-04 -8.28833e-04
       H  1.24023e-03 -9.97705e-04  3.95284e-04
       O  1.51333e-04  1.07841e-04  3.60098e-05
       H -3.85219e-04  1.10857e-03 -1.36425e-04
       H  1.43545e-04 -1.46349e-03 -1.87184e-04
       H -6.54603e-04  7.40969e-04 -1.55751e-04
13
# CELL(abcABC):   56.20000    56.20000    56.20000    90.00000    90.00000    90.00000  Step:          24  Bead:       0 velocities{atomic_unit}  cell{angstrom}
       O -4.84556e-05 -6.32578e-05 -6.19757e-05
       H  2.88289e-04  8.09647e-04  1.25659e-04
       H  1.15874e-04  8.01763e-04  6.26025e-04
       O -2.73400e-04 -8.47416e-05  1.30029e-04
       H -3.29663e-06  2.08856e-04  5.00053e-04
       H -7.74143e-04 -2.88647e-04  2.87722e-04
       O  1.61624e-04 -3.97975e-05 -1.43490e-04
       H  1.22742e-04  3.91949e-04 -8.91926e-04
       H  1.21446e-03 -1.00630e-03  4.93753e-04
       O  1.72934e-04  1.08498e-04  3.96673e-05
       H -5.99243e-04  1.16302e-03 -3.23267e-04
       H  4.46805e-05 -1.51767e-03 -6.14100e-05
       H -6.10987e-04  6.96131e-04 -1.88831e-04
13
# CELL(abcABC):   56.20000    56.20000    56.20000    90.00000    90.00000    90.00000  Step:          25  Bead:       0 velocities{atomic_unit}  cell{angstrom}
       O -4.99486e-05 -6.78677e-05 -5.75995e-05
       H  3.06743e-04  8.72119e-04 -1.95922e-05
       H  1.30592e-04  8.07186e-04  7.52754e-04
       O -2.69139e-04 -8.64535e-05  1.21752e-04
       H -2.37250e-05  1.93144e-04  5.85904e-04
       H -7.73840e-04 -2.91564e-04  2.80867e-04
       O  1.53072e-04 -4.32238e-05 -1.42421e-04
       H  1.56823e-04  4.74275e-04 -9.53466e-04
       H  1.13260e-03 -9.41168e-04  5.85680e-04
       O  1.86661e-04  1.09531e-04  4.08506e-05
       H -7.19751e-04  1.18704e-03 -4.08775e-04
       H -2.20009e-05 -1.54499e-03  6.01261e-07
       H -5.15155e-04  6.41035e-04 -2.30030e-04
13
# CELL(abcABC):   56.20000    56.20000    56.20000    90.00000    90.00000    90.00000  Step:          26  Bead:       0 velocities{atomic_unit}  cell{angstrom}
       O -4.73668e-05 -6.44852e-05 -4.93544e-05
       H  2.93751e-04  8.54774e-04 -1.12596e-04
       H  1.13294e-04  7.70002e-04  7.62826e-04
       O -2.65923e-04 -8.81764e-05  1.16648e-04
       H -2.38534e-05  1.61686e-04  6.39048e-04
       H -7.76623e-04 -2.75272e-04  2.53752e-04
       O  1.45067e-04 -4.94049e-05 -1.40119e-04
       H  1.83660e-04  5.40249e-04 -1.01468e-03
       H  1.00418e-03 -8.16674e-04  6.70445e-04
       O  1.91693e-04  1.10817e-04  3.97234e-05
       H -7.39344e-04  1.17535e-03 -3.86733e-04
       H -5.15554e-05 -1.53836e-03 -9.88828e-06
       H -3.76051e-04  5.76671e-04 -2.76740e-04
13
# CELL(abcABC):   56.20000    56.20000    56.20000    90.00000    90.00000    90.00000  Step:          27  Bead:       0 velocities{atomic_unit}  cell{angstrom}
       O -4.09649e-05 -5.33964e-05 -3.78604e-05
       H  2.49936e-04  7.58503e-04 -1.53290e-04
       H  6.71598e-05  6.93119e-04  6.65633e-04
       O -2.63960e-04 -8.97246e-05  1.14852e-04
       H -1.05032e-06  1.13415e-04  6.55511e-04
       H -7.82014e-04 -2.41814e-04  2.09350e-04
       O  1.37831e-04 -5.72161e-05 -1.36728e-04
       H  2.01092e-04  5.86859e-04 -1.07611e-03
       H  8.39400e-04 -6.47655e-04  7.47245e-04
       O  1.88472e-04  1.12182e-04  3.67891e-05
       H -6.65573e-04  1.12817e-03 -2.66932e-04
       H -4.42500e-05 -1.49547e-03 -9.09352e-05
       H -2.04040e-04  5.04192e-04 -3.26227e-04
13
# CELL(abcABC):   56.20000    56.20000    56.20000    90.00000    90.00000    90.00000  Step:          28  Bead:       0 velocities{atomic_unit}  cell{angstrom}
       O -3.13880e-05 -3.57051e-05 -2.40209e-05
       H  1.79509e-04  5.93647e-04 -1.48569e-04
       H -2.08005e-06  5.82847e-04  4.81982e-04
       O -2.63281e-04 -9.09326e-05  1.16076e-04
       H  4.42200e-05  4.95404e-05  6.36137e-04
       H -7.89267e-04 -1.95336e-04  1.52852e-04
       O  1.31607e-04 -6.56806e-05 -1.32447e-04
       H  2.07897e-04  6.12516e-04 -1.13752e-03
       H  6.48094e-04 -4.47824e-04  8.15078e-04
       O  1.78319e-04  1.13467e-04  3.26597e-05
       H -5.15688e-04  1.04995e-03 -6.92320e-05
       H -4.58421e-06 -1.41862e-03 -2.32184e-04
       H -1.02720e-05  4.24913e-04 -3.75799e-04
13
# CELL(abcABC):   56.20000    56.20000    56.20000    90.00000    90.00000    90.00000  Step:          29  Bead:       0 velocities{atomic_unit}  cell{angstrom}
       O -1.95185e-05 -1.30562e-05 -8.85519e-06
       H  8.90883e-05  3.76926e-04 -1.09815e-04
       H -8.73773e-05  4.47605e-04  2.38955e-04
       O -2.63716e-04 -9.16970e-05  1.19625e-04
       H  1.08060e-04 -2.63258e-05  5.86843e-04
       H -7.97495e-04 -1.41512e-04  9.09716e-05
       O  1.26660e-04 -7.40180e-05 -1.27520e-04
       H  2.03842e-04  6.17157e-04 -1.19791e-03
       H  4.39364e-04 -2.29174e-04  8.72828e-04
       O  1.63054e-04  1.14570e-04  2.79054e-05
       H -3.11936e-04  9.47979e-04  1.81646e-04
       H  6.00107e-05 -1.31384e-03 -4.17713e-04
       H  1.93590e-04  3.40286e-04 -4.22872e-04
13
# CELL(abcABC):   56.20000    56.20000    56.20000    90.00000    90.00000    90.00000  Step:          30  Bead:       0 velocities{atomic_unit}  cell{angstrom}
       O -6.35811e-06  1.25970e-05  6.59161e-06
       H -1.33351e-05  1.28745e-04 -5.08422e-05
       H -1.81187e-04  2.96983e-04 -3.35535e-05
       O -2.64901e-04 -9.19982e-05  1.24484e-04
       H  1.83379e-04 -1.08456e-04  5.18007e-04
       H -8.05792e-04 -8.68681e-05  3.11319e-05
       O  1.23278e-04 -8.16412e-05 -1.22233e-04
       H  1.89619e-04  6.02155e-04 -1.25559e-03
       H  2.21543e-04 -2.03507e-06  9.19432e-04
       O  1.44743e-04  1.15452e-04  2.30048e-05
       H -7.85891e-05  8.31296e-04  4.59399e-04
       H  1.40361e-04 -1.19003e-03 -6.28529e-04
       H  3.95405e-04  2.51884e-04 -4.64978e-04
13
# CELL(abcABC):   56.20000    56.20000    56.20000    90.00000    90.00000    90.00000  Step:          31  Bead:       0 velocities{atomic_unit}  cell{angstrom}
       O  7.04816e-06  3.91516e-05  2.12804e-05
       H -1.19139e-04 -1.28738e-04  1.34887e-05
       H -2.75912e-04  1.41207e-04 -3.04727e-04
       O -2.66327e-04 -9.18977e-05  1.29460e-04
       H  2.60835e-04 -1.89774e-04  4.42894e-04
       H -8.13323e-04 -3.80560e-05 -1.93793e-05
       O  1.21756e-04 -8.81215e-05 -1.16905e-04
       H  1.66696e-04  5.70094e-04 -1.30842e-03
       H  2.38488e-06  2.24544e-04  9.54083e-04
       O  1.25554e-04  1.16129e-04  1.83605e-05
       H  1.59457e-04  7.10119e-04  7.37690e-04
       H  2.26451e-04 -1.05809e-03 -8.44391e-04
       H  5.82522e-04  1.61377e-04 -4.99763e-04
13
# CELL(abcABC):   56.20000    56.20000    56.20000    90.00000    90.00000    90.00000  Step:          32  Bead:       0 velocities{atomic_unit}  cell{angstrom}
       O  1.96588e-05  6.44600e-05  3.41878e-05
       H -2.19560e-04 -3.72894e-04  6.81408e-05
       H -3.64133e-04 -9.17429e-06 -5.43817e-04
       O -2.67427e-04 -9.15169e-05  1.33372e-04
       H  3.30330e-04 -2.62972e-04  3.75428e-04
       H -8.19387e-04 -1.09878e-06 -5.42818e-05
       O  1.22388e-04 -9.31404e-05 -1.11882e-04
       H  1.37119e-04  5.24447e-04 -1.35401e-03
       H -2.10662e-04  4.42297e-04  9.76449e-04
       O  1.07691e-04  1.16640e-04  1.43455e-05
       H  3.77132e-04  5.95624e-04  9.90690e-04
       H  3.08093e-04 -9.30270e-04 -1.04511e-03
       H  7.41858e-04  7.05058e-05 -5.24996e-04
13
# CELL(abcABC):   56.20000    56.20000    56.20000    90.00000    90.00000    90.00000  Step:          33  Bead:       0 velocities{atomic_unit}  cell{angstrom}
       O  3.04776e-05  8.64214e-05  4.43244e-05
       H -3.06099e-04 -5.81703e-04  9.86119e-05
       H -4.38842e-04 -1.43611e-04 -7.21121e-04
       O -2.67679e-04 -9.10079e-05  1.35248e-04
       H  3.82731e-04 -3.21717e-04  3.27804e-04
       H -8.23449e-04  1.93386e-05 -6.91209e-05
       O  1.25424e-04 -9.64383e-05 -1.07529e-04
       H  1.03295e-04  4.69232e-04 -1.38993e-03
       H -4.10186e-04  6.43236e-04  9.86895e-04
       O  9.33341e-05  1.17021e-04  1.13452e-05
       H  5.49529e-04  4.99751e-04  1.19352e-03
       H  3.75504e-04 -8.19485e-04 -1.21167e-03
       H  8.60275e-04 -1.89557e-05 -5.38648e-04
13
# CELL(abcABC):   56.20000    56.20000    56.20000    90.00000    90.00000    90.00000  Step:          34  Bead:       0 velocities{atomic_unit}  cell{angstrom}
       O  3.86136e-05  1.03110e-04  5.07946e-05
       H -3.71041e-04 -7.35117e-04  9.18762e-05
       H -4.93853e-04 -2.52155e-04 -8.09826e-04
       O -2.66696e-04 -9.05327e-05  1.34484e-04
       H  4.11354e-04 -3.61633e-04  3.08577e-04
       H -8.25143e-04  2.05931e-05 -6.19601e-05
       O  1.31016e-04 -9.77675e-05 -1.04217e-04
       H  6.77834e-05  4.08673e-04 -1.41389e-03
       H -5.88599e-04  8.19224e-04  9.86700e-04
       O  8.45358e-05  1.17283e-04  9.76368e-06
       H  6.52983e-04  4.34674e-04  1.32339e-03
       H  4.19986e-04 -7.38430e-04 -1.32750e-03
       H  9.25436e-04 -1.05247e-04 -5.39060e-04
13
# CELL(abcABC):   56.20000    56.20000    56.20000    90.00000    90.00000    90.00000  Step:          35  Bead:       0 velocities{atomic_unit}  cell{angstrom}
       O  4.33773e-05  1.12975e-04  5.29196e-05
       H -4.08231e-04 -8.17114e-04  3.78832e-05
       H -5.24536e-04 -3.26557e-04 -7.89433e-04
       O -2.64285e-04 -9.02574e-05  1.30938e-04
       H  4.12883e-04 -3.80837e-04  3.21624e-04
       H -8.24240e-04  2.46630e-06 -3.38383e-05
       O  1.39128e-04 -9.68582e-05 -1.02308e-04
       H  3.30958e-05  3.46899e-04 -1.42396e-03
       H -7.38047e-04  9.61710e-04  9.78220e-04
       O  8.29978e-05  1.17408e-04  9.97313e-06
       H  6.67637e-04  4.11516e-04  1.36220e-03
       H  4.34831e-04 -6.98206e-04 -1.38026e-03
       H  9.27266e-04 -1.86682e-04 -5.25213e-04
13
# CELL(abcABC):   56.20000    56.20000    56.20000    90.00000    90.00000    90.00000  Step:          36  Bead:       0 velocities{atomic_unit}  cell{angstrom}
       O  4.44108e-05  1.15121e-04  5.04242e-05
       H -4.14112e-04 -8.18475e-04 -6.83095e-05
       H -5.28828e-04 -3.61873e-04 -6.50812e-04
       O -2.60464e-04 -9.03553e-05  1.24940e-04
       H  3.87615e-04 -3.79994e-04  3.66035e-04
       H -8.20613e-04 -3.26181e-05  1.11622e-05
       O  1.49431e-04 -9.34058e-05 -1.02128e-04
       H  1.52757e-06  2.87702e-04 -1.41858e-03
       H -8.50524e-04  1.06174e-03  9.64954e-04
       O  8.97170e-05  1.17374e-04  1.21894e-05
       H  5.81890e-04  4.38065e-04  1.30061e-03
       H  4.16492e-04 -7.06405e-04 -1.36398e-03
       H  8.59947e-04 -2.61706e-04 -4.97082e-04
13
# CELL(abcABC):   56.20000    56.20000    56.20000    90.00000    90.00000    90.00000  Step:          37  Bead:       0 velocities{atomic_unit}  cell{angstrom}
       O  4.18215e-05  1.09601e-04  4.36363e-05
       H -3.88848e-04 -7.39788e-04 -2.24113e-04
       H -5.08240e-04 -3.58185e-04 -4.01763e-04
       O -2.55447e-04 -9.10062e-05  1.17228e-04
       H  3.39142e-04 -3.61975e-04  4.36730e-04
       H -8.14178e-04 -7.98568e-05  6.63322e-05
       O  1.61205e-04 -8.70911e-05 -1.03939e-04
       H -2.49923e-05  2.34335e-04 -1.39670e-03
       H -9.18301e-04  1.11041e-03  9.51431e-04
       O  1.04553e-04  1.17203e-04  1.63027e-05
       H  3.97998e-04  5.15706e-04  1.14301e-03
       H  3.65808e-04 -7.64845e-04 -1.28130e-03
       H  7.24095e-04 -3.28937e-04 -4.55989e-04
13