13
# CELL(abcABC):   56.30000    56.30000    56.30000    90.00000    90.00000    90.00000  Step:           0  Bead:       0 positions{angstrom}  cell{angstrom}
       O  1.07822e+00  2.29893e+00  2.61891e-01
       H  1.35274e+00  2.95352e+00 -3.93921e-01
       H  1.39443e+00  2.60453e+00  1.12190e+00
       O  1.45105e+00 -2.02156e+00 -4.65212e-02
       H  1.85428e+00 -2.50046e+00 -7.82775e-01
       H  1.59141e+00 -2.54947e+00  7.50145e-01
       O  2.23335e-02  6.89147e-02 -4.15705e-01
       H  4.46095e-01  9.31444e-01 -1.06679e-01
       H  5.69145e-01 -7.58536e-01 -2.27687e-01
       O -2.48599e+00 -1.78842e-01  2.68437e-02
       H -3.13139e+00 -2.01090e-01 -6.92125e-01
       H -2.98092e+00 -1.38271e-01  8.55314e-01
       H -9.59352e-01 -1.82065e-02 -1.97593e-01
13
# CELL(abcABC):   56.30000    56.30000    56.30000    90.00000    90.00000    90.00000  Step:          10  Bead:       0 positions{angstrom}  cell{angstrom}
       O  1.03694e+00  2.29786e+00  2.51327e-01
       H  1.33857e+00  2.92891e+00 -4.18274e-01
       H  1.36726e+00  2.60916e+00  1.09514e+00
       O  1.49234e+00 -1.99876e+00 -4.57972e-02
       H  1.86034e+00 -2.47699e+00 -8.17667e-01
       H  1.50022e+00 -2.54949e+00  7.45815e-01
       O  1.48669e-02  5.72976e-02 -4.07805e-01
       H  4.48582e-01  9.01984e-01 -5.54473e-02
       H  5.31096e-01 -7.97842e-01 -2.38025e-01
       O -2.47465e+00 -1.74430e-01  3.37110e-02
       H -3.07390e+00 -2.99172e-01 -6.97564e-01
       H -2.92453e+00 -9.99298e-02  8.88145e-01
       H -9.72927e-01 -1.23830e-01 -2.53756e-01
13
# CELL(abcABC):   56.30000    56.30000    56.30000    90.00000    90.00000    90.00000  Step:          20  Bead:       0 positions{angstrom}  cell{angstrom}
       O  9.95645e-01  2.29632e+00  2.40497e-01
       H  1.31700e+00  2.89136e+00 -4.47316e-01
       H  1.35007e+00  2.62304e+00  1.09557e+00
       O  1.53116e+00 -1.97263e+00 -4.68144e-02
       H  1.86511e+00 -2.47904e+00 -7.74435e-01
       H  1.44403e+00 -2.59489e+00  6.94525e-01
       O  7.58424e-03  3.43676e-02 -4.01597e-01
       H  3.90764e-01  8.88075e-01 -2.59931e-02
       H  5.75248e-01 -7.82680e-01 -2.59505e-01
       O -2.45468e+00 -1.70335e-01  3.99253e-02
       H -3.11643e+00 -4.04803e-01 -6.65755e-01
       H -2.93001e+00 -7.32986e-02  8.68458e-01
       H -9.83261e-01 -6.62309e-02 -2.46314e-01
13
# CELL(abcABC):   56.30000    56.30000    56.30000    90.00000    90.00000    90.00000  Step:          30  Bead:       0 positions{angstrom}  cell{angstrom}
       O  9.55579e-01  2.29556e+00  2.34875e-01
       H  1.29323e+00  2.85207e+00 -4.80837e-01
       H  1.31589e+00  2.62822e+00  1.04785e+00
       O  1.56753e+00 -1.94775e+00 -4.35662e-02
       H  1.90578e+00 -2.50394e+00 -7.92738e-01
       H  1.39706e+00 -2.61557e+00  6.35429e-01
       O  1.24744e-03  1.40075e-02 -3.96962e-01
       H  3.58811e-01  8.87759e-01 -5.65694e-02
       H  6.28856e-01 -7.85644e-01 -2.55826e-01
       O -2.44107e+00 -1.69443e-01  3.95488e-02
       H -3.10236e+00 -4.74015e-01 -5.54531e-01
       H -2.94713e+00 -4.28346e-02  8.59819e-01
       H -9.94283e-01 -1.83701e-02 -1.93279e-01
13
# CELL(abcABC):   56.30000    56.30000    56.30000    90.00000    90.00000    90.00000  Step:          40  Bead:       0 positions{angstrom}  cell{angstrom}
       O  9.14385e-01  2.29424e+00  2.26719e-01
       H  1.26768e+00  2.81801e+00 -5.07932e-01
       H  1.30446e+00  2.65810e+00  1.04890e+00
       O  1.60568e+00 -1.93399e+00 -4.41585e-02
       H  1.93493e+00 -2.41637e+00 -7.95925e-01
       H  1.34326e+00 -2.58373e+00  6.24052e-01
       O -2.22832e-03  1.49232e-03 -3.92389e-01
       H  4.11553e-01  8.90925e-01 -1.31618e-01
       H  5.88669e-01 -7.86863e-01 -2.27384e-01
       O -2.43644e+00 -1.68174e-01  4.66384e-02
       H -3.09798e+00 -5.72808e-01 -5.75733e-01
       H -2.89131e+00  1.66391e-02  8.81686e-01
       H -9.75435e-01 -1.15126e-01 -1.53002e-01
13
# CELL(abcABC):   56.30000    56.30000    56.30000    90.00000    90.00000    90.00000  Step:          50  Bead:       0 positions{angstrom}  cell{angstrom}
       O  8.75594e-01  2.29506e+00  2.18000e-01
       H  1.23789e+00  2.80056e+00 -5.17445e-01
       H  1.27278e+00  2.65676e+00  1.01569e+00
       O  1.63952e+00 -1.91947e+00 -4.07137e-02
       H  1.99091e+00 -2.36129e+00 -8.34292e-01
       H  1.33532e+00 -2.57400e+00  6.07095e-01
       O -1.67635e-03 -7.64385e-03 -3.89831e-01
       H  4.29221e-01  8.73643e-01 -1.69887e-01
       H  5.98446e-01 -8.15528e-01 -2.11190e-01
       O -2.44005e+00 -1.70031e-01  5.30783e-02
       H -3.03046e+00 -6.27092e-01 -5.39265e-01
       H -2.84531e+00  6.82160e-02  8.85732e-01
       H -9.75765e-01 -1.81628e-01 -1.32498e-01
13
# CELL(abcABC):   56.30000    56.30000    56.30000    90.00000    90.00000    90.00000  Step:          60  Bead:       0 positions{angstrom}  cell{angstrom}
       O  8.38318e-01  2.29667e+00  2.05310e-01
       H  1.20759e+00  2.81666e+00 -5.30567e-01
       H  1.24265e+00  2.63946e+00  1.01047e+00
       O  1.66865e+00 -1.90229e+00 -3.59479e-02
       H  2.04108e+00 -2.34277e+00 -8.22618e-01
       H  1.40451e+00 -2.62138e+00  5.48006e-01
       O  3.75246e-03 -2.79742e-02 -3.89280e-01
       H  3.69106e-01  8.78696e-01 -1.18026e-01
       H  6.51176e-01 -7.80437e-01 -2.42975e-01
       O -2.43579e+00 -1.71929e-01  6.01322e-02
       H -3.05684e+00 -6.81303e-01 -4.77192e-01
       H -2.89725e+00  9.23992e-02  8.83835e-01
       H -9.73544e-01 -1.06970e-01 -1.41913e-01
13
# CELL(abcABC):   56.30000    56.30000    56.30000    90.00000    90.00000    90.00000  Step:          70  Bead:       0 positions{angstrom}  cell{angstrom}
       O  8.03057e-01  2.30064e+00  1.89686e-01
       H  1.16053e+00  2.83578e+00 -5.23668e-01
       H  1.21082e+00  2.61248e+00  1.02186e+00
       O  1.69683e+00 -1.88921e+00 -3.34450e-02
       H  2.10181e+00 -2.29296e+00 -7.99802e-01
       H  1.49463e+00 -2.66942e+00  5.18762e-01
       O  1.24667e-02 -3.81128e-02 -3.90465e-01
       H  3.24484e-01  8.61756e-01 -6.84344e-02
       H  6.82454e-01 -8.02262e-01 -2.45885e-01
       O -2.43613e+00 -1.73335e-01  7.18747e-02
       H -3.08936e+00 -7.30366e-01 -4.13541e-01
       H -2.94061e+00  1.01431e-01  8.34768e-01
       H -9.76837e-01 -1.09510e-01 -1.74353e-01
13
# CELL(abcABC):   56.30000    56.30000    56.30000    90.00000    90.00000    90.00000  Step:          80  Bead:       0 positions{angstrom}  cell{angstrom}
       O  7.68962e-01  2.30518e+00  1.78498e-01
       H  1.11744e+00  2.87445e+00 -5.25935e-01
       H  1.16516e+00  2.58827e+00  9.96548e-01
       O  1.72384e+00 -1.88486e+00 -3.03701e-02
       H  2.20709e+00 -2.19252e+00 -8.37576e-01
       H  1.57721e+00 -2.65028e+00  5.34270e-01
       O  2.24802e-02 -4.18503e-02 -3.92329e-01
       H  3.64102e-01  8.57812e-01 -7.04511e-02
       H  6.23491e-01 -8.25331e-01 -2.09450e-01
       O -2.44932e+00 -1.80318e-01  8.28071e-02
       H -3.03215e+00 -7.51245e-01 -3.91583e-01
       H -2.94153e+00  1.67592e-01  8.51378e-01
       H -9.50056e-01 -2.32790e-01 -2.12653e-01
13
# CELL(abcABC):   56.30000    56.30000    56.30000    90.00000    90.00000    90.00000  Step:          90  Bead:       0 positions{angstrom}  cell{angstrom}
       O  7.34810e-01  2.30848e+00  1.66222e-01
       H  1.06514e+00  2.90873e+00 -5.19293e-01
       H  1.14324e+00  2.59780e+00  1.01035e+00
       O  1.75160e+00 -1.88226e+00 -3.21056e-02
       H  2.28111e+00 -2.08432e+00 -7.91309e-01
       H  1.68924e+00 -2.65080e+00  5.50479e-01
       O  3.25812e-02 -4.98351e-02 -3.96207e-01
       H  3.81215e-01  8.66950e-01 -1.11100e-01
       H  6.31878e-01 -8.34420e-01 -1.71928e-01
       O -2.46329e+00 -1.87280e-01  9.66522e-02
       H -3.04890e+00 -8.05272e-01 -4.07103e-01
       H -2.91520e+00  2.24156e-01  8.42783e-01
       H -9.33976e-01 -2.43153e-01 -2.04137e-01
13
# CELL(abcABC):   56.30000    56.30000    56.30000    90.00000    90.00000    90.00000  Step:         100  Bead:       0 positions{angstrom}  cell{angstrom}
       O  7.03998e-01  2.31359e+00  1.57947e-01
       H  9.99993e-01  2.93275e+00 -5.14647e-01
       H  1.09780e+00  2.59999e+00  9.83328e-01
       O  1.77431e+00 -1.87658e+00 -2.92095e-02
       H  2.39652e+00 -2.04002e+00 -7.71148e-01
       H  1.84660e+00 -2.66943e+00  5.34052e-01
       O  4.41931e-02 -6.39847e-02 -4.00738e-01
       H  3.48108e-01  8.65147e-01 -1.71692e-01
       H  6.97822e-01 -8.00354e-01 -1.63095e-01
       O -2.47339e+00 -1.99459e-01  1.04656e-01
       H -3.09864e+00 -7.74172e-01 -3.25453e-01
       H -2.94639e+00  2.36421e-01  8.13160e-01
       H -9.43471e-01 -1.24137e-01 -1.55499e-01
13
# CELL(abcABC):   56.30000    56.30000    56.30000    90.00000    90.00000    90.00000  Step:         110  Bead:       0 positions{angstrom}  cell{angstrom}
       O  6.73853e-01  2.31948e+00  1.49441e-01
       H  9.29600e-01  2.97257e+00 -5.31902e-01
       H  1.06102e+00  2.61174e+00  9.87973e-01
       O  1.80299e+00 -1.87631e+00 -2.84732e-02
       H  2.47203e+00 -1.96429e+00 -7.21093e-01
       H  1.96511e+00 -2.63897e+00  5.26206e-01
       O  4.99620e-02 -7.24419e-02 -4.05801e-01
       H  3.80808e-01  8.76955e-01 -2.31941e-01
       H  7.05222e-01 -7.90002e-01 -1.46279e-01
       O -2.48102e+00 -2.10689e-01  1.14110e-01
       H -3.16716e+00 -7.75382e-01 -2.85613e-01
       H -2.99064e+00  2.70192e-01  8.09652e-01
       H -9.04942e-01 -1.21673e-01 -1.24377e-01
13
# CELL(abcABC):   56.30000    56.30000    56.30000    90.00000    90.00000    90.00000  Step:         120  Bead:       0 positions{angstrom}  cell{angstrom}
       O  6.45690e-01  2.32808e+00  1.38244e-01
       H  8.46371e-01  2.99814e+00 -5.14118e-01
       H  1.02312e+00  2.62587e+00  9.83803e-01
       O  1.83751e+00 -1.87800e+00 -3.02119e-02
       H  2.52551e+00 -1.85433e+00 -7.00203e-01
       H  2.02792e+00 -2.61116e+00  5.89865e-01
       O  5.69173e-02 -7.08431e-02 -4.12379e-01
       H  4.24700e-01  8.50919e-01 -2.61383e-01
       H  6.63722e-01 -8.25759e-01 -1.23637e-01
       O -2.49784e+00 -2.19912e-01  1.29794e-01
       H -3.15974e+00 -7.93908e-01 -2.97060e-01
       H -2.94663e+00  3.02519e-01  7.78057e-01
       H -8.98251e-01 -2.39962e-01 -1.11896e-01
13
# CELL(abcABC):   56.30000    56.30000    56.30000    90.00000    90.00000    90.00000  Step:         130  Bead:       0 positions{angstrom}  cell{angstrom}
       O  6.19112e-01  2.33603e+00  1.28112e-01
       H  7.68722e-01  3.05626e+00 -5.13784e-01
       H  9.82126e-01  2.63902e+00  9.60152e-01
       O  1.87036e+00 -1.88024e+00 -2.92519e-02
       H  2.60026e+00 -1.77576e+00 -6.75571e-01
       H  2.09279e+00 -2.54741e+00  6.17108e-01
       O  6.09535e-02 -8.15479e-02 -4.17794e-01
       H  3.93232e-01  8.62575e-01 -2.03672e-01
       H  6.74223e-01 -8.25689e-01 -1.53894e-01
       O -2.51040e+00 -2.33081e-01  1.42737e-01
       H -3.13680e+00 -7.92708e-01 -2.98016e-01
       H -2.94516e+00  3.63656e-01  7.90068e-01
       H -8.86792e-01 -2.39372e-01 -1.52863e-01
13
# CELL(abcABC):   56.30000    56.30000    56.30000    90.00000    90.00000    90.00000  Step:         140  Bead:       0 positions{angstrom}  cell{angstrom}
       O  5.93898e-01  2.34577e+00  1.15999e-01
       H  6.76138e-01  3.07687e+00 -5.08651e-01
       H  9.52992e-01  2.66127e+00  9.69368e-01
       O  1.90126e+00 -1.87601e+00 -3.20455e-02
       H  2.66140e+00 -1.76466e+00 -5.94510e-01
       H  2.19073e+00 -2.50976e+00  6.45250e-01
       O  6.43881e-02 -9.32076e-02 -4.22408e-01
       H  3.09243e-01  8.39318e-01 -1.37250e-01
       H  7.41468e-01 -8.23530e-01 -1.94027e-01
       O -2.51180e+00 -2.42813e-01  1.58729e-01
       H -3.19988e+00 -7.89959e-01 -2.88997e-01
       H -2.98708e+00  3.55417e-01  7.43518e-01
       H -9.25036e-01 -1.86429e-01 -2.09176e-01
13
# CELL(abcABC):   56.30000    56.30000    56.30000    90.00000    90.00000    90.00000  Step:         150  Bead:       0 positions{angstrom}  cell{angstrom}
       O  5.70222e-01  2.35642e+00  1.09668e-01
       H  5.81323e-01  3.08210e+00 -5.21585e-01
       H  9.08792e-01  2.68709e+00  9.42104e-01
       O  1.93318e+00 -1.87120e+00 -3.37381e-02
       H  2.74825e+00 -1.74851e+00 -5.68762e-01
       H  2.22616e+00 -2.45329e+00  6.90419e-01
       O  6.17260e-02 -1.00859e-01 -4.25669e-01
       H  3.08782e-01  8.32453e-01 -1.28664e-01
       H  7.25731e-01 -8.10062e-01 -2.03029e-01
       O -2.51393e+00 -2.55180e-01  1.71650e-01
       H -3.20077e+00 -7.55242e-01 -2.60251e-01
       H -3.02392e+00  3.56335e-01  7.12396e-01
       H -9.09099e-01 -2.60035e-01 -2.63065e-01
13
# CELL(abcABC):   56.30000    56.30000    56.30000    90.00000    90.00000    90.00000  Step:         160  Bead:       0 positions{angstrom}  cell{angstrom}
       O  5.46257e-01  2.36367e+00  1.05423e-01
       H  4.86396e-01  3.08717e+00 -5.51169e-01
       H  8.76767e-01  2.74812e+00  9.33014e-01
       O  1.97201e+00 -1.86576e+00 -3.58180e-02
       H  2.76862e+00 -1.72844e+00 -5.51963e-01
       H  2.18957e+00 -2.38005e+00  7.37760e-01
       O  5.64448e-02 -1.03859e-01 -4.30272e-01
       H  3.30377e-01  8.41635e-01 -1.75500e-01
       H  7.10662e-01 -8.39959e-01 -1.80914e-01
       O -2.51787e+00 -2.67520e-01  1.84261e-01
       H -3.18973e+00 -7.89753e-01 -2.93128e-01
       H -3.00085e+00  4.05970e-01  7.20124e-01
       H -8.96267e-01 -3.71826e-01 -2.65380e-01
13
# CELL(abcABC):   56.30000    56.30000    56.30000    90.00000    90.00000    90.00000  Step:         170  Bead:       0 positions{angstrom}  cell{angstrom}
       O  5.22437e-01  2.37108e+00  1.01194e-01
       H  4.01541e-01  3.05237e+00 -5.53835e-01
       H  8.40683e-01  2.81151e+00  9.02928e-01
       O  2.00370e+00 -1.85539e+00 -3.85262e-02
       H  2.82158e+00 -1.73534e+00 -5.36153e-01
       H  2.18462e+00 -2.33181e+00  8.02579e-01
       O  5.41626e-02 -1.16998e-01 -4.35363e-01
       H  2.79534e-01  8.38771e-01 -2.20026e-01
       H  7.38499e-01 -8.02213e-01 -1.93605e-01
       O -2.52240e+00 -2.80767e-01  1.95498e-01
       H -3.17188e+00 -7.97353e-01 -2.98943e-01
       H -2.94042e+00  3.99078e-01  6.88677e-01
       H -8.95308e-01 -3.25470e-01 -2.06241e-01
13
# CELL(abcABC):   56.30000    56.30000    56.30000    90.00000    90.00000    90.00000  Step:         180  Bead:       0 positions{angstrom}  cell{angstrom}
       O  4.98224e-01  2.37645e+00  9.81100e-02
       H  3.16657e-01  3.04745e+00 -5.93833e-01
       H  8.06293e-01  2.85354e+00  8.73141e-01
       O  2.02785e+00 -1.84121e+00 -3.77544e-02
       H  2.89275e+00 -1.78179e+00 -4.88157e-01
       H  2.22336e+00 -2.26653e+00  7.90914e-01
       O  4.84729e-02 -1.30686e-01 -4.42008e-01
       H  2.58355e-01  8.36519e-01 -2.31950e-01
       H  8.14241e-01 -7.71456e-01 -2.13439e-01
       O -2.51470e+00 -3.00234e-01  2.01634e-01
       H -3.20043e+00 -7.72100e-01 -2.77111e-01
       H -2.97332e+00  4.34023e-01  6.89727e-01
       H -9.10016e-01 -2.54157e-01 -1.19115e-01
13
# CELL(abcABC):   56.30000    56.30000    56.30000    90.00000    90.00000    90.00000  Step:         190  Bead:       0 positions{angstrom}  cell{angstrom}
       O  4.71499e-01  2.38305e+00  8.98775e-02
       H  2.51366e-01  3.01620e+00 -5.97029e-01
       H  7.82335e-01  2.88816e+00  8.61559e-01
       O  2.05289e+00 -1.82231e+00 -3.81919e-02
       H  2.90921e+00 -1.81676e+00 -4.65987e-01
       H  2.24094e+00 -2.23444e+00  8.30536e-01
       O  4.09620e-02 -1.35237e-01 -4.45414e-01
       H  3.13588e-01  8.07040e-01 -2.45500e-01
       H  7.85603e-01 -7.61955e-01 -2.29060e-01
       O -2.50521e+00 -3.13147e-01  2.11593e-01
       H -3.22386e+00 -7.67710e-01 -2.73183e-01
       H -2.96899e+00  3.91984e-01  6.54065e-01
       H -8.67028e-01 -3.24576e-01 -7.16127e-02
13
# CELL(abcABC):   56.30000    56.30000    56.30000    90.00000    90.00000    90.00000  Step:         200  Bead:       0 positions{angstrom}  cell{angstrom}
       O  4.44107e-01  2.38743e+00  8.14698e-02
       H  1.96756e-01  3.01735e+00 -6.08414e-01
       H  7.58582e-01  2.89996e+00  8.30404e-01
       O  2.07756e+00 -1.80281e+00 -3.13735e-02
       H  2.92501e+00 -1.82868e+00 -5.16834e-01
       H  2.20831e+00 -2.19520e+00  8.42169e-01
       O  3.75893e-02 -1.36388e-01 -4.47488e-01
       H  3.32699e-01  8.11129e-01 -2.32213e-01
       H  7.53757e-01 -8.28602e-01 -2.53169e-01
       O -2.49854e+00 -3.27397e-01  2.19564e-01
       H -3.16481e+00 -7.99117e-01 -2.80610e-01
       H -2.94501e+00  4.00626e-01  6.78715e-01
       H -8.51088e-01 -4.14144e-01 -6.46352e-02
13
# CELL(abcABC):   56.30000    56.30000    56.30000    90.00000    90.00000    90.00000  Step:         210  Bead:       0 positions{angstrom}  cell{angstrom}
       O  4.15240e-01  2.38882e+00  7.01239e-02
       H  1.52889e-01  3.02944e+00 -6.19124e-01
       H  7.51903e-01  2.90682e+00  8.16865e-01
       O  2.09739e+00 -1.77955e+00 -2.39115e-02
       H  2.90204e+00 -1.85127e+00 -5.40727e-01
       H  2.22378e+00 -2.17919e+00  8.33879e-01
       O  4.12348e-02 -1.46284e-01 -4.46313e-01
       H  2.65539e-01  7.92465e-01 -1.77035e-01
       H  7.59365e-01 -8.30923e-01 -3.21492e-01
       O -2.48731e+00 -3.41486e-01  2.28681e-01
       H -3.12814e+00 -8.44829e-01 -2.96992e-01
       H -2.92766e+00  3.92823e-01  7.07410e-01
       H -8.78326e-01 -3.62570e-01 -1.09108e-01
13
# CELL(abcABC):   56.30000    56.30000    56.30000    90.00000    90.00000    90.00000  Step:         220  Bead:       0 positions{angstrom}  cell{angstrom}
       O  3.84610e-01  2.39014e+00  5.73032e-02
       H  1.29391e-01  3.01974e+00 -6.08787e-01
       H  7.49311e-01  2.89386e+00  7.97615e-01
       O  2.10782e+00 -1.75067e+00 -1.83116e-02
       H  2.90262e+00 -1.89559e+00 -5.53718e-01
       H  2.29803e+00 -2.20210e+00  8.39350e-01
       O  4.17510e-02 -1.55371e-01 -4.44062e-01
       H  2.51482e-01  7.83188e-01 -1.37586e-01
       H  8.07911e-01 -8.11081e-01 -3.45452e-01
       O -2.46877e+00 -3.55440e-01  2.38378e-01
       H -3.12384e+00 -8.45912e-01 -2.78385e-01
       H -2.94383e+00  3.18763e-01  6.93206e-01
       H -9.31470e-01 -3.21847e-01 -1.87581e-01
13
# CELL(abcABC):   56.30000    56.30000    56.30000    90.00000    90.00000    90.00000  Step:         230  Bead:       0 positions{angstrom}  cell{angstrom}
       O  3.54015e-01  2.38735e+00  4.78128e-02
       H  1.02543e-01  3.04315e+00 -6.40032e-01
       H  7.49843e-01  2.87627e+00  7.77410e-01
       O  2.11952e+00 -1.72303e+00 -8.97903e-03
       H  2.86884e+00 -1.92285e+00 -5.93997e-01
       H  2.32640e+00 -2.18507e+00  7.90628e-01
       O  4.02308e-02 -1.55061e-01 -4.41356e-01
       H  2.92717e-01  7.69147e-01 -1.66417e-01
       H  7.78234e-01 -8.13040e-01 -2.87918e-01
       O -2.44567e+00 -3.73879e-01  2.43356e-01
       H -3.11353e+00 -8.56420e-01 -2.60123e-01
       H -2.99044e+00  3.06866e-01  7.31720e-01
       H -9.17703e-01 -3.85650e-01 -2.52097e-01
13
# CELL(abcABC):   56.30000    56.30000    56.30000    90.00000    90.00000    90.00000  Step:         240  Bead:       0 positions{angstrom}  cell{angstrom}
       O  3.22163e-01  2.38408e+00  3.65247e-02
       H  1.03120e-01  3.02912e+00 -6.32930e-01
       H  7.55790e-01  2.86640e+00  7.57288e-01
       O  2.13206e+00 -1.69421e+00 -2.91206e-03
       H  2.79100e+00 -1.91717e+00 -6.67263e-01
       H  2.33036e+00 -2.19279e+00  8.21333e-01
       O  4.48633e-02 -1.54442e-01 -4.42496e-01
       H  2.78243e-01  8.09318e-01 -2.18476e-01
       H  7.28113e-01 -8.53196e-01 -2.02583e-01
       O -2.43099e+00 -3.89771e-01  2.48252e-01
       H -3.07952e+00 -9.05385e-01 -2.56975e-01
       H -2.91141e+00  2.49081e-01  7.48877e-01
       H -8.98650e-01 -4.16045e-01 -2.26829e-01
13
# CELL(abcABC):   56.30000    56.30000    56.30000    90.00000    90.00000    90.00000  Step:         250  Bead:       0 positions{angstrom}  cell{angstrom}
       O  2.91010e-01  2.37779e+00  2.75117e-02
       H  1.00932e-01  3.03709e+00 -6.60716e-01
       H  7.62481e-01  2.84138e+00  7.30642e-01
       O  2.13958e+00 -1.66437e+00  8.21747e-03
       H  2.71195e+00 -1.92797e+00 -7.30430e-01
       H  2.35722e+00 -2.19085e+00  7.80892e-01
       O  5.23241e-02 -1.58405e-01 -4.45025e-01
       H  2.24743e-01  8.13136e-01 -2.62786e-01
       H  7.48206e-01 -8.18869e-01 -1.51492e-01
       O -2.41365e+00 -4.12701e-01  2.47148e-01
       H -3.05705e+00 -9.45821e-01 -2.33948e-01
       H -2.86447e+00  2.46370e-01  8.12363e-01
       H -9.05461e-01 -3.32182e-01 -1.38020e-01
13
# CELL(abcABC):   56.30000    56.30000    56.30000    90.00000    90.00000    90.00000  Step:         260  Bead:       0 positions{angstrom}  cell{angstrom}
       O  2.58721e-01  2.37167e+00  1.70268e-02
       H  1.09224e-01  3.03323e+00 -6.80893e-01
       H  7.75266e-01  2.80747e+00  7.07946e-01
       O  2.14220e+00 -1.63137e+00  1.87851e-02
       H  2.62306e+00 -1.95287e+00 -7.55791e-01
       H  2.42029e+00 -2.21414e+00  7.34530e-01
       O  5.04621e-02 -1.61848e-01 -4.45894e-01
       H  2.64944e-01  8.17372e-01 -2.96096e-01
       H  8.25152e-01 -7.33618e-01 -1.27895e-01
       O -2.39102e+00 -4.34450e-01  2.46786e-01
       H -3.07295e+00 -9.59849e-01 -1.87993e-01
       H -2.84663e+00  1.88103e-01  8.42252e-01
       H -8.78704e-01 -2.90129e-01 -7.13183e-02
13
# CELL(abcABC):   56.30000    56.30000    56.30000    90.00000    90.00000    90.00000  Step:         270  Bead:       0 positions{angstrom}  cell{angstrom}
       O  2.26850e-01  2.36618e+00  5.19222e-03
       H  1.22653e-01  3.01761e+00 -6.85698e-01
       H  7.88723e-01  2.77450e+00  6.82109e-01
       O  2.14535e+00 -1.59951e+00  2.89277e-02
       H  2.51520e+00 -1.94994e+00 -7.95910e-01
       H  2.46563e+00 -2.22248e+00  7.20418e-01
       O  5.41464e-02 -1.55119e-01 -4.43622e-01
       H  2.99902e-01  8.12300e-01 -3.52256e-01
       H  8.28037e-01 -7.11631e-01 -1.29368e-01
       O -2.36851e+00 -4.53454e-01  2.50146e-01
       H -3.07538e+00 -9.82834e-01 -1.55962e-01
       H -2.82967e+00  1.09462e-01  8.59312e-01
       H -8.55332e-01 -3.75278e-01 -4.04548e-02
13
# CELL(abcABC):   56.30000    56.30000    56.30000    90.00000    90.00000    90.00000  Step:         280  Bead:       0 positions{angstrom}  cell{angstrom}
       O  1.97658e-01  2.35957e+00 -5.52070e-03
       H  1.28434e-01  3.03401e+00 -7.20619e-01
       H  7.94016e-01  2.74084e+00  6.51416e-01
       O  2.15146e+00 -1.57258e+00  3.86062e-02
       H  2.39911e+00 -1.92143e+00 -8.31659e-01
       H  2.46397e+00 -2.16610e+00  7.03600e-01
       O  6.45766e-02 -1.49833e-01 -4.39567e-01
       H  2.25291e-01  8.51192e-01 -3.69553e-01
       H  8.07040e-01 -7.68362e-01 -1.45965e-01
       O -2.35012e+00 -4.74576e-01  2.53816e-01
       H -3.01777e+00 -1.03228e+00 -1.57752e-01
       H -2.80617e+00  8.39573e-02  9.41422e-01
       H -8.25129e-01 -4.21178e-01 -7.48838e-02
13
# CELL(abcABC):   56.30000    56.30000    56.30000    90.00000    90.00000    90.00000  Step:         290  Bead:       0 positions{angstrom}  cell{angstrom}
       O  1.70091e-01  2.35674e+00 -2.12361e-02
       H  1.23998e-01  3.00741e+00 -7.15277e-01
       H  7.97712e-01  2.69979e+00  6.32229e-01
       O  2.15222e+00 -1.54089e+00  4.08072e-02
       H  2.33560e+00 -1.92674e+00 -8.26228e-01
       H  2.48576e+00 -2.16322e+00  7.32727e-01
       O  7.72992e-02 -1.49725e-01 -4.37275e-01
       H  1.49021e-01  8.59005e-01 -3.05923e-01
       H  8.37944e-01 -7.55822e-01 -1.48914e-01
       O -2.33482e+00 -4.92656e-01  2.63518e-01
       H -2.96857e+00 -1.08595e+00 -1.59749e-01
       H -2.74639e+00 -9.25319e-03  9.53708e-01
       H -8.65553e-01 -3.97371e-01 -1.42441e-01
13
# CELL(abcABC):   56.30000    56.30000    56.30000    90.00000    90.00000    90.00000  Step:         300  Bead:       0 positions{angstrom}  cell{angstrom}
       O  1.44369e-01  2.35258e+00 -3.43079e-02
       H  1.06314e-01  3.01324e+00 -7.53654e-01
       H  7.91407e-01  2.66655e+00  6.15256e-01
       O  2.15114e+00 -1.51110e+00  4.19532e-02
       H  2.33809e+00 -1.96781e+00 -7.91941e-01
       H  2.47445e+00 -2.11439e+00  7.07428e-01
       O  8.16512e-02 -1.48321e-01 -4.36966e-01
       H  1.81848e-01  8.32593e-01 -2.31007e-01
       H  8.71094e-01 -6.75990e-01 -9.68390e-02
       O -2.31385e+00 -5.14964e-01  2.67726e-01
       H -2.95665e+00 -1.12316e+00 -1.34185e-01
       H -2.76618e+00 -7.58102e-02  1.02780e+00
       H -8.67358e-01 -4.02548e-01 -2.05120e-01
13
# CELL(abcABC):   56.30000    56.30000    56.30000    90.00000    90.00000    90.00000  Step:         310  Bead:       0 positions{angstrom}  cell{angstrom}
       O  1.21508e-01  2.34933e+00 -4.52973e-02
       H  9.27114e-02  2.99128e+00 -7.68502e-01
       H  7.66563e-01  2.68574e+00  5.86567e-01
       O  2.15089e+00 -1.48462e+00  3.82534e-02
       H  2.35939e+00 -1.98108e+00 -7.71047e-01
       H  2.45919e+00 -2.05535e+00  7.63798e-01
       O  8.67772e-02 -1.40893e-01 -4.37904e-01
       H  2.07397e-01  8.52170e-01 -2.39493e-01
       H  8.48105e-01 -6.83136e-01 -4.07464e-02
       O -2.29829e+00 -5.38490e-01  2.73668e-01
       H -2.94101e+00 -1.14198e+00 -1.00575e-01
       H -2.74376e+00 -1.74777e-01  1.04850e+00
       H -8.37177e-01 -4.53316e-01 -1.87040e-01
13
# CELL(abcABC):   56.30000    56.30000    56.30000    90.00000    90.00000    90.00000  Step:         320  Bead:       0 positions{angstrom}  cell{angstrom}
       O  1.02450e-01  2.34687e+00 -5.37304e-02
       H  6.66724e-02  2.95790e+00 -7.96200e-01
       H  7.33269e-01  2.74844e+00  5.72046e-01
       O  2.15308e+00 -1.46460e+00  3.58549e-02
       H  2.38801e+00 -1.96479e+00 -7.50801e-01
       H  2.43565e+00 -1.95398e+00  8.31941e-01
       O  9.61978e-02 -1.33605e-01 -4.36272e-01
       H  1.56066e-01  8.75145e-01 -3.20229e-01
       H  8.15053e-01 -7.26362e-01 -6.96405e-02
       O -2.28853e+00 -5.65461e-01  2.80798e-01
       H -2.92933e+00 -1.19071e+00 -1.15624e-01
       H -2.68107e+00 -2.33963e-01  1.08946e+00
       H -8.09462e-01 -4.38418e-01 -1.16629e-01
13
# CELL(abcABC):   56.30000    56.30000    56.30000    90.00000    90.00000    90.00000  Step:         330  Bead:       0 positions{angstrom}  cell{angstrom}
       O  8.74821e-02  2.34837e+00 -6.10089e-02
       H  1.35618e-02  2.92936e+00 -8.49306e-01
       H  6.72852e-01  2.79537e+00  5.58105e-01
       O  2.15349e+00 -1.44484e+00  3.84928e-02
       H  2.45760e+00 -1.98372e+00 -7.13837e-01
       H  2.43589e+00 -1.86750e+00  8.40489e-01
       O  9.52621e-02 -1.30644e-01 -4.34668e-01
       H  1.72793e-01  8.83001e-01 -3.63899e-01
       H  9.10883e-01 -7.02119e-01 -1.53093e-01
       O -2.28247e+00 -5.96558e-01  2.86366e-01
       H -2.89388e+00 -1.21014e+00 -1.16182e-01
       H -2.63197e+00 -2.87511e-01  1.15788e+00
       H -8.13206e-01 -3.74429e-01 -7.60155e-02
13
# CELL(abcABC):   56.30000    56.30000    56.30000    90.00000    90.00000    90.00000  Step:         340  Bead:       0 positions{angstrom}  cell{angstrom}
       O  7.27916e-02  2.35439e+00 -7.41976e-02
       H -4.45338e-02  2.89707e+00 -8.48158e-01
       H  6.18016e-01  2.85236e+00  5.54128e-01
       O  2.15432e+00 -1.42595e+00  3.66326e-02
       H  2.54078e+00 -1.99750e+00 -6.39638e-01
       H  2.46400e+00 -1.81315e+00  8.92586e-01
       O  9.30336e-02 -1.26488e-01 -4.34764e-01
       H  2.55979e-01  8.55533e-01 -3.53181e-01
       H  9.45631e-01 -6.19226e-01 -2.48120e-01
       O -2.27388e+00 -6.23689e-01  2.98454e-01
       H -2.90210e+00 -1.24450e+00 -1.03873e-01
       H -2.61352e+00 -3.93982e-01  1.14608e+00
       H -8.20757e-01 -3.84993e-01 -6.71706e-02
13
# CELL(abcABC):   56.30000    56.30000    56.30000    90.00000    90.00000    90.00000  Step:         350  Bead:       0 positions{angstrom}  cell{angstrom}
       O  6.08708e-02  2.36112e+00 -8.61794e-02
       H -1.10776e-01  2.92611e+00 -8.70324e-01
       H  5.51517e-01  2.92310e+00  5.35107e-01
       O  2.16380e+00 -1.41488e+00  3.86877e-02
       H  2.61689e+00 -1.98850e+00 -5.92525e-01
       H  2.44631e+00 -1.69497e+00  9.02347e-01
       O  9.14591e-02 -1.15668e-01 -4.41147e-01
       H  2.46592e-01  8.80388e-01 -3.07102e-01
       H  9.16553e-01 -6.85413e-01 -2.63691e-01
       O -2.26408e+00 -6.52552e-01  3.08372e-01
       H -2.89422e+00 -1.27222e+00 -1.01856e-01
       H -2.63989e+00 -4.80762e-01  1.20877e+00
       H -7.81285e-01 -4.52185e-01 -7.66137e-02
13
# CELL(abcABC):   56.30000    56.30000    56.30000    90.00000    90.00000    90.00000  Step:         360  Bead:       0 positions{angstrom}  cell{angstrom}
       O  5.10143e-02  2.37546e+00 -1.01077e-01
       H -1.82912e-01  2.92225e+00 -8.56676e-01
       H  4.80046e-01  2.96909e+00  5.18977e-01
       O  2.17673e+00 -1.40690e+00  3.88626e-02
       H  2.69340e+00 -1.97107e+00 -5.63988e-01
       H  2.43949e+00 -1.58355e+00  9.62848e-01
       O  9.52025e-02 -1.06278e-01 -4.51226e-01
       H  1.48922e-01  8.83474e-01 -2.39190e-01
       H  8.54826e-01 -7.45360e-01 -2.48365e-01
       O -2.26135e+00 -6.84215e-01  3.25611e-01
       H -2.84853e+00 -1.28389e+00 -1.26170e-01
       H -2.61585e+00 -5.62442e-01  1.20507e+00
       H -7.69169e-01 -4.73715e-01 -9.83401e-02
13
# CELL(abcABC):   56.30000    56.30000    56.30000    90.00000    90.00000    90.00000  Step:         370  Bead:       0 positions{angstrom}  cell{angstrom}
       O  4.10522e-02  2.39343e+00 -1.16031e-01
       H -2.68787e-01  2.90974e+00 -8.71880e-01
       H  4.25341e-01  3.00484e+00  5.41060e-01
       O  2.19008e+00 -1.40092e+00  4.15976e-02
       H  2.76349e+00 -1.94648e+00 -4.93554e-01
       H  2.46605e+00 -1.49803e+00  9.65065e-01
       O  9.03006e-02 -1.05099e-01 -4.60836e-01
       H  1.33943e-01  8.73947e-01 -1.90234e-01
       H  8.95847e-01 -6.71166e-01 -2.37608e-01
       O -2.25733e+00 -7.16913e-01  3.43311e-01
       H -2.83581e+00 -1.32065e+00 -1.80499e-01
       H -2.61004e+00 -6.34987e-01  1.23808e+00
       H -8.09581e-01 -4.42118e-01 -1.50721e-01
13
# CELL(abcABC):   56.30000    56.30000    56.30000    90.00000    90.00000    90.00000  Step:         380  Bead:       0 positions{angstrom}  cell{angstrom}
       O  3.20903e-02  2.41313e+00 -1.27809e-01