13
# CELL(abcABC):   56.30000    56.30000    56.30000    90.00000    90.00000    90.00000  Step:           0  Bead:       0 velocities{atomic_unit}  cell{angstrom}
       O -3.90014e-04 -1.90437e-05 -1.34493e-04
       H -1.38206e-04 -2.44317e-04 -1.85333e-04
       H -5.05925e-05  2.30145e-04  2.92861e-04
       O  4.06541e-04  1.76213e-04 -4.21717e-05
       H -3.10556e-04  7.29100e-04  2.06748e-04
       H -9.00888e-04  1.94471e-05  2.01530e-04
       O -7.69904e-05 -5.81071e-05  7.39234e-05
       H  1.83971e-04 -3.40003e-04  4.60114e-04
       H -4.27952e-04 -7.15588e-04 -1.59836e-06
       O  1.21585e-04  4.83585e-05  1.29839e-04
       H  6.83529e-06 -9.78806e-04 -1.06063e-03
       H  7.82020e-04  3.60588e-04  2.96233e-04
       H -1.14828e-04 -1.40063e-03 -6.40066e-04
13
# CELL(abcABC):   56.30000    56.30000    56.30000    90.00000    90.00000    90.00000  Step:          10  Bead:       0 velocities{atomic_unit}  cell{angstrom}
       O -3.66884e-04 -2.35860e-06 -6.94233e-05
       H -1.46665e-04 -2.56611e-04 -2.45202e-04
       H -3.82180e-04 -8.64715e-05 -5.97094e-04
       O  3.51086e-04  2.40491e-04  3.50352e-05
       H  2.89458e-04 -2.08484e-04 -4.52881e-04
       H -6.88746e-04 -1.39462e-04 -3.41193e-04
       O -6.05964e-05 -1.79148e-04  6.76497e-05
       H -2.62263e-04 -1.71030e-04  4.48807e-04
       H -1.12275e-04  1.31056e-04 -2.15638e-04
       O  1.07943e-04  3.10678e-05  9.25553e-06
       H  7.21407e-04 -8.11127e-04  8.86774e-04
       H  1.82637e-04  3.10218e-04  1.15076e-04
       H -1.02153e-04 -1.97515e-04 -2.73539e-04
13
# CELL(abcABC):   56.30000    56.30000    56.30000    90.00000    90.00000    90.00000  Step:          20  Bead:       0 velocities{atomic_unit}  cell{angstrom}
       O -3.77727e-04 -1.80290e-05 -8.74325e-05
       H -2.03406e-04 -3.46378e-04 -3.42519e-04
       H -1.47454e-04  1.55881e-04  3.02605e-05
       O  3.44498e-04  2.42467e-04 -3.25227e-06
       H  1.05629e-04 -1.42258e-04  4.59852e-04
       H -3.94834e-04 -4.62428e-04 -6.24611e-04
       O -7.00283e-05 -2.06862e-04  4.57335e-05
       H -6.29031e-04 -9.50091e-05  1.14482e-05
       H  8.04679e-04 -5.83693e-05 -9.90313e-05
       O  2.03463e-04  3.00348e-05  3.90061e-05
       H -6.62702e-04 -9.18136e-04  4.17707e-04
       H -3.15814e-04  2.23364e-04 -1.36947e-04
       H -1.47651e-04  8.87583e-04  3.78211e-04
13
# CELL(abcABC):   56.30000    56.30000    56.30000    90.00000    90.00000    90.00000  Step:          30  Bead:       0 velocities{atomic_unit}  cell{angstrom}
       O -3.71228e-04 -7.60246e-06 -6.74074e-05
       H -2.67184e-04 -4.18888e-04 -1.96838e-04
       H -1.76054e-04  2.10521e-04 -1.71443e-04
       O  3.47757e-04  1.73105e-04  6.77909e-07
       H  2.64306e-04  3.87386e-04 -2.02960e-05
       H -5.20792e-04  3.55709e-05 -2.43287e-04
       O -4.49780e-05 -1.61238e-04  4.32273e-05
       H  1.80026e-04  8.90478e-05 -5.45520e-04
       H -7.13994e-05  1.00795e-04  1.60639e-04
       O  7.57277e-05  1.21375e-05  3.83492e-05
       H  9.40315e-05 -7.60679e-04  4.62753e-04
       H  3.06015e-04  3.68164e-04 -1.51180e-04
       H  7.55113e-05 -2.72278e-04  4.69497e-04
13
# CELL(abcABC):   56.30000    56.30000    56.30000    90.00000    90.00000    90.00000  Step:          40  Bead:       0 velocities{atomic_unit}  cell{angstrom}
       O -3.62618e-04 -1.42577e-07 -4.64856e-05
       H -1.91783e-04 -1.73671e-04 -2.79927e-04
       H -3.33643e-04  2.81120e-05 -4.63243e-04
       O  3.20169e-04  1.21026e-04  4.42854e-05
       H  6.05781e-04  5.44475e-04 -7.13371e-04
       H -3.35073e-04  4.72981e-04 -1.36077e-04
       O -1.56426e-05 -6.71156e-05  3.42659e-05
       H  5.30155e-04 -1.01790e-04 -6.86387e-04
       H -2.98560e-04 -2.84259e-04  3.13786e-04
       O -2.95753e-05 -2.10282e-05  2.82502e-05
       H  8.23376e-04 -5.07074e-04  2.19949e-04
       H  4.92998e-04  6.55487e-04  5.00302e-04
       H  9.83296e-05 -1.15396e-03  2.87553e-04
13
# CELL(abcABC):   56.30000    56.30000    56.30000    90.00000    90.00000    90.00000  Step:          50  Bead:       0 velocities{atomic_unit}  cell{angstrom}
       O -3.59349e-04  1.45943e-06 -1.33803e-04
       H -3.15442e-04 -6.37007e-05 -1.55962e-05
       H -5.49796e-05  1.12846e-04  2.88639e-04
       O  3.06845e-04  1.36696e-04 -5.84463e-06
       H  1.96545e-04  6.35987e-04  5.07777e-04
       H  2.54110e-04 -3.54441e-04 -2.65934e-04
       O  2.63813e-05 -1.41728e-04  1.49976e-05
       H -2.69533e-04 -9.03799e-05  1.01583e-04
       H  3.92109e-04  6.62645e-05 -1.23587e-04
       O  3.00258e-05  1.43683e-05  1.15099e-04
       H -3.95383e-04 -9.50758e-04 -1.30043e-04
       H  1.21930e-04  2.83607e-04 -2.59601e-04
       H  8.69437e-06  1.89202e-04  4.83722e-05
13
# CELL(abcABC):   56.30000    56.30000    56.30000    90.00000    90.00000    90.00000  Step:          60  Bead:       0 velocities{atomic_unit}  cell{angstrom}
       O -3.16046e-04  3.77792e-05 -1.04880e-04
       H -3.44751e-04  1.90643e-04 -2.17964e-05
       H -5.15109e-04 -4.25445e-04 -4.31562e-04
       O  2.36208e-04  1.70480e-04  7.82517e-05
       H  7.61754e-04 -1.54316e-04 -3.63359e-04
       H  8.50558e-04 -5.18271e-04 -5.58811e-04
       O  7.06607e-05 -1.74008e-04 -6.35572e-06
       H -6.68714e-04  4.65519e-05  6.53652e-04
       H  5.14601e-04  2.13878e-04 -2.76072e-04
       O  5.16183e-06 -4.69804e-05  4.04191e-05
       H  1.94016e-04  8.36247e-05  1.30925e-03
       H -6.84609e-04  5.95096e-05 -2.37504e-04
       H -4.40044e-05  7.05884e-04 -1.91815e-04
13
# CELL(abcABC):   56.30000    56.30000    56.30000    90.00000    90.00000    90.00000  Step:          70  Bead:       0 velocities{atomic_unit}  cell{angstrom}
       O -3.28345e-04  2.96896e-05 -1.39304e-04
       H -3.78588e-04  3.36376e-04 -9.25806e-05
       H -2.14924e-04 -1.52551e-04  2.82798e-04
       O  2.65539e-04  5.80620e-05  2.10025e-06
       H  5.61361e-04  9.36438e-04  3.19244e-04
       H  7.96841e-04 -2.96817e-05 -8.62538e-05
       O  8.64737e-05 -2.85289e-05 -1.16896e-05
       H  6.06260e-06 -2.55865e-04  1.81301e-04
       H -1.59925e-04 -4.02495e-04  2.20023e-04
       O -2.74596e-05 -1.29526e-05  1.22128e-04
       H -3.37469e-04 -7.46755e-04 -2.16523e-05
       H -3.07543e-04  4.15913e-04  1.73717e-05
       H  9.43684e-05 -8.35842e-04 -3.95395e-04
13
# CELL(abcABC):   56.30000    56.30000    56.30000    90.00000    90.00000    90.00000  Step:          80  Bead:       0 velocities{atomic_unit}  cell{angstrom}
       O -3.05511e-04  4.76307e-05 -1.12641e-04
       H -5.11580e-04  2.04582e-04  2.29266e-04
       H -3.42120e-04 -7.94804e-05 -1.64976e-04
       O  2.53658e-04  3.26516e-05 -2.48383e-07
       H  8.99717e-04  1.06374e-03 -1.52531e-04
       H  7.60922e-04 -7.24237e-06  4.09468e-04
       O  9.24160e-05 -5.56697e-05 -2.59100e-05
       H  4.86255e-04  1.63820e-04 -1.91926e-04
       H -5.48263e-04 -5.18272e-05  3.77862e-04
       O -1.75333e-04 -6.74063e-05  1.31309e-04
       H  5.88530e-04 -1.71978e-04  6.92511e-05
       H  4.97621e-04  5.00524e-04 -2.62391e-04
       H  3.08180e-04 -9.42860e-04 -1.95122e-04
13
# CELL(abcABC):   56.30000    56.30000    56.30000    90.00000    90.00000    90.00000  Step:          90  Bead:       0 velocities{atomic_unit}  cell{angstrom}
       O -2.99794e-04  2.55591e-05 -6.92736e-05
       H -4.26146e-04  4.56257e-04 -1.63572e-04
       H -3.75833e-04  1.48840e-05 -2.21239e-04
       O  2.15607e-04  2.89817e-05  3.09100e-05
       H  1.01773e-03  5.85600e-04  1.48050e-04
       H  1.32284e-03  1.14220e-04 -2.43211e-04
       O  1.01825e-04 -9.69649e-05 -4.17812e-05
       H -2.34388e-04 -5.56014e-05 -5.20479e-04
       H  6.35256e-04  8.13367e-06  2.42693e-04
       O -9.91071e-05 -1.14080e-04  6.15627e-05
       H -2.46515e-04  4.15294e-06  4.00041e-04
       H -3.18245e-04  5.74058e-04  3.10675e-04
       H -8.15188e-05  7.82548e-04  3.42001e-04
13
# CELL(abcABC):   56.30000    56.30000    56.30000    90.00000    90.00000    90.00000  Step:         100  Bead:       0 velocities{atomic_unit}  cell{angstrom}
       O -2.82296e-04  5.37838e-05 -1.07651e-04
       H -7.11798e-04  1.06071e-04  1.08323e-04
       H -2.16640e-04  1.84570e-04  2.55203e-04
       O  2.42655e-04  4.68642e-05 -1.59651e-05
       H  5.69997e-04  5.08856e-04  7.93089e-04
       H  1.41429e-03 -2.39745e-04 -4.85737e-05
       O  8.78523e-05 -1.40348e-04 -4.06803e-05
       H -9.95770e-05  1.33753e-04 -5.50471e-04
       H  3.53848e-04  4.52831e-04  1.84011e-06
       O -5.52079e-05 -7.01721e-05  1.15721e-04
       H -1.12119e-03 -1.49480e-04  4.33367e-04
       H -2.07005e-04 -1.54176e-04 -6.39289e-04
       H  1.29132e-04  9.01355e-04  4.17570e-04
13
# CELL(abcABC):   56.30000    56.30000    56.30000    90.00000    90.00000    90.00000  Step:         110  Bead:       0 velocities{atomic_unit}  cell{angstrom}
       O -2.56881e-04  7.26282e-05 -5.68436e-05
       H -6.78229e-04  3.60040e-04 -8.50850e-05
       H -5.40335e-04 -3.06310e-05 -4.09083e-04
       O  2.67524e-04 -1.88607e-05  3.03866e-05
       H  1.05263e-03  8.77723e-04 -2.15020e-04
       H  7.36986e-04  4.32723e-04  2.25064e-04
       O  4.09585e-05  1.68598e-06 -5.61714e-05
       H  5.60009e-04 -9.67985e-05 -5.20661e-04
       H -1.91164e-04 -3.23184e-04  3.17022e-04
       O -1.38722e-04 -1.30281e-04  8.16370e-05
       H  2.81696e-04  3.69478e-04  4.40188e-04
       H -1.49472e-04  4.62030e-04  6.05029e-05
       H  3.10776e-04 -8.63617e-04  2.02808e-04
13
# CELL(abcABC):   56.30000    56.30000    56.30000    90.00000    90.00000    90.00000  Step:         120  Bead:       0 velocities{atomic_unit}  cell{angstrom}
       O -2.61651e-04  6.31520e-05 -1.17075e-04
       H -7.13940e-04  4.84477e-04  2.31517e-05
       H -2.01732e-04  2.50522e-04  2.25422e-04
       O  3.50141e-04 -2.97513e-05 -2.92422e-05
       H  6.30801e-05  9.62636e-04  5.98017e-04
       H  4.50438e-04  5.14009e-04  4.33061e-04
       O  6.75122e-05 -2.88762e-05 -5.54694e-05
       H  1.05737e-04 -1.37248e-04  1.17848e-04
       H -3.84515e-04 -1.14465e-04 -4.90618e-05
       O -1.24206e-04 -7.71541e-05  1.53442e-04
       H -1.96258e-04 -5.97698e-04 -5.07642e-04
       H  3.44767e-04  5.78916e-04  2.30275e-05
       H  2.77047e-05 -7.88273e-04 -9.64281e-05
13
# CELL(abcABC):   56.30000    56.30000    56.30000    90.00000    90.00000    90.00000  Step:         130  Bead:       0 velocities{atomic_unit}  cell{angstrom}
       O -2.28528e-04  9.78859e-05 -1.07958e-04
       H -8.09745e-04  1.66321e-04  2.73538e-04
       H -3.95465e-04  1.01442e-04 -2.74421e-04
       O  2.63538e-04  2.46550e-05 -6.57907e-06
       H  9.13043e-04  3.95527e-04  2.76434e-04
       H  9.11933e-04  1.83496e-04  4.66942e-04
       O  1.93268e-05 -1.29659e-04 -4.83467e-05
       H -6.83399e-04  1.14159e-04  7.75594e-04
       H  6.37310e-04 -4.10614e-05 -3.90877e-04
       O -9.30506e-05 -1.03234e-04  1.40023e-04
       H  8.10409e-05  3.02800e-04  2.76578e-04
       H  1.86596e-05 -9.67700e-05 -5.07614e-04
       H -5.88552e-05  6.25752e-04 -5.33302e-04
13
# CELL(abcABC):   56.30000    56.30000    56.30000    90.00000    90.00000    90.00000  Step:         140  Bead:       0 velocities{atomic_unit}  cell{angstrom}
       O -2.23140e-04  7.65171e-05 -6.58780e-05
       H -8.39868e-04  4.34329e-04 -3.60776e-04
       H -3.49119e-04  1.62316e-04 -7.48460e-05
       O  2.85180e-04  2.48488e-05  1.19056e-06
       H  7.31010e-04  2.22208e-05  6.04636e-04
       H  5.92568e-04  7.79682e-04 -1.14755e-04
       O  2.61584e-05 -8.40700e-05 -3.09948e-05
       H -5.48779e-04 -3.94798e-04  3.27376e-04
       H  2.44905e-04  1.83945e-04 -2.87466e-04
       O  2.88573e-05 -1.32964e-04  1.00431e-04
       H -4.42214e-04  2.31442e-04  2.41050e-04
       H -9.40383e-04  4.16691e-04  1.07435e-04
       H -3.06178e-04  2.10307e-07 -5.18038e-04
13
# CELL(abcABC):   56.30000    56.30000    56.30000    90.00000    90.00000    90.00000  Step:         150  Bead:       0 velocities{atomic_unit}  cell{angstrom}
       O -2.22639e-04  1.00552e-04 -7.71948e-05
       H -8.79216e-04 -2.88452e-04  9.62863e-05
       H -2.66952e-04  4.96384e-04  3.21525e-05
       O  3.38322e-04  6.69774e-05 -5.53287e-05
       H  2.23352e-04  1.84623e-04  2.88593e-04
       H  4.96496e-05  2.67301e-04  9.03963e-04
       O -6.79833e-05 -4.38678e-05 -3.65201e-05
       H  3.96488e-04  2.36687e-04 -1.73418e-04
       H -2.69035e-04 -1.67357e-04  1.52098e-04
       O -4.26291e-05 -6.41462e-05  1.59761e-04
       H -1.35700e-04 -1.69414e-04 -1.88270e-04
       H  3.99368e-04 -3.25074e-04 -6.07394e-04
       H  4.01551e-04 -1.17940e-03 -3.56656e-04
13
# CELL(abcABC):   56.30000    56.30000    56.30000    90.00000    90.00000    90.00000  Step:         160  Bead:       0 velocities{atomic_unit}  cell{angstrom}
       O -2.09680e-04  5.89670e-05 -5.51471e-06
       H -8.36612e-04  6.56337e-05 -3.33052e-04
       H -4.25655e-04  4.79985e-04 -4.72339e-04
       O  3.18968e-04  4.84956e-05  1.62737e-05
       H  6.70889e-04  1.87630e-04 -1.96287e-04
       H -4.43776e-04  8.03241e-04  2.28012e-04
       O -1.65376e-05 -5.11919e-05 -4.26843e-05
       H -1.99638e-04 -1.21933e-04 -5.67894e-04
       H -2.66411e-05 -2.13609e-05  8.38492e-05
       O -6.03913e-05 -1.57545e-04  7.38570e-05
       H  6.09764e-04 -1.97338e-05 -1.03509e-05
       H  2.26522e-04  6.80731e-04  2.85837e-04
       H -8.84912e-05 -4.46626e-04  3.16627e-04
13
# CELL(abcABC):   56.30000    56.30000    56.30000    90.00000    90.00000    90.00000  Step:         170  Bead:       0 velocities{atomic_unit}  cell{angstrom}
       O -2.24101e-04  4.93797e-05 -4.83004e-05
       H -7.83666e-04 -2.12385e-04 -1.89985e-04
       H -2.18512e-04  6.41394e-04 -1.73975e-05
       O  2.71091e-04  1.19779e-04 -2.99660e-05
       H  2.12532e-04 -3.54845e-04  6.03845e-04
       H  2.62333e-04  4.77445e-04  2.74896e-04
       O -4.02953e-05 -1.62208e-04 -5.67584e-05
       H -5.08352e-04  1.43550e-04 -1.88469e-04
       H  6.59245e-04  4.33407e-04 -2.14674e-04
       O  3.14963e-05 -1.29530e-04  9.84542e-05
       H -4.51344e-04 -1.85096e-04 -1.71505e-04
       H  2.24779e-04  1.11070e-05 -2.37326e-04
       H -3.22675e-06  9.91176e-04  7.21114e-04
13
# CELL(abcABC):   56.30000    56.30000    56.30000    90.00000    90.00000    90.00000  Step:         180  Bead:       0 velocities{atomic_unit}  cell{angstrom}
       O -2.31576e-04  7.34004e-05 -5.20928e-05
       H -6.41777e-04 -3.59133e-04 -1.82621e-05
       H -3.40443e-04  2.38156e-04 -3.60655e-04
       O  1.91756e-04  1.62636e-04 -9.02442e-06
       H  7.53148e-04 -4.16213e-04  2.59687e-04
       H  4.30255e-04  3.03898e-04  3.56685e-04
       O -5.96640e-05 -7.39567e-05 -5.12019e-05
       H  2.07962e-04 -3.10272e-04 -1.20064e-04
       H  3.14158e-04  2.23686e-04 -1.57960e-04
       O  6.94707e-05 -1.47291e-04  7.08565e-05
       H -1.20408e-04  4.45153e-04  3.83196e-04
       H -1.10224e-04 -3.68964e-04 -4.15229e-04
       H -1.62634e-05  8.95447e-06  7.30754e-04
13
# CELL(abcABC):   56.30000    56.30000    56.30000    90.00000    90.00000    90.00000  Step:         190  Bead:       0 velocities{atomic_unit}  cell{angstrom}
       O -2.41863e-04  3.16346e-05 -5.58076e-05
       H -6.65193e-04  1.81725e-04 -4.29697e-04
       H -2.06202e-04  2.28194e-04 -1.44359e-04
       O  2.48513e-04  1.60250e-04  5.66947e-05
       H -6.89020e-06 -1.89340e-04 -1.14370e-04
       H -2.56658e-04  5.78811e-04 -2.39843e-04
       O -6.91088e-05 -1.91631e-05 -1.98749e-05
       H  5.95850e-04 -1.44434e-05 -5.58323e-05
       H -5.39253e-04 -2.64455e-04 -1.19835e-04
       O  1.02412e-04 -1.55857e-04  6.17891e-05
       H  1.19665e-04 -2.25275e-04 -1.16627e-04
       H -2.41046e-04  4.97009e-04  3.69569e-04
       H  5.65529e-04 -1.05994e-03  1.71593e-04
13
# CELL(abcABC):   56.30000    56.30000    56.30000    90.00000    90.00000    90.00000  Step:         200  Bead:       0 velocities{atomic_unit}  cell{angstrom}
       O -2.68201e-04  4.44271e-05 -1.22335e-04
       H -2.96364e-04 -2.90710e-04  3.28619e-04
       H -1.09957e-04  1.52298e-04 -1.45427e-04
       O  2.15093e-04  2.08544e-04  2.83767e-05
       H -1.61413e-04 -9.26587e-05 -4.05139e-04
       H -1.09885e-04 -1.47237e-05  6.81287e-04
       O  1.59286e-05 -2.95046e-05 -8.63008e-06
       H -3.70357e-04 -1.10767e-04  3.28389e-04
       H -6.95956e-05 -5.65419e-04 -4.44196e-04
       O  4.16024e-05 -7.34930e-05  1.13073e-04
       H  4.79299e-04 -4.90222e-04 -2.11147e-04
       H  7.84108e-04 -7.35345e-04 -1.96763e-04
       H -2.16039e-04 -2.33034e-04 -1.02045e-04
13
# CELL(abcABC):   56.30000    56.30000    56.30000    90.00000    90.00000    90.00000  Step:         210  Bead:       0 velocities{atomic_unit}  cell{angstrom}
       O -2.60247e-04 -5.03182e-07 -8.42948e-05
       H -4.32863e-04  3.23076e-04 -3.29835e-04
       H -9.31141e-05 -1.31799e-04 -2.73442e-04
       O  1.20455e-04  2.26463e-04  1.04235e-04
       H  1.41695e-04 -3.61832e-04 -2.46445e-04
       H  4.29034e-04  2.00721e-04 -5.98789e-04
       O  2.95875e-05 -1.30412e-04  2.07670e-05
       H -5.50718e-04 -7.39344e-05  5.88115e-04
       H  2.54962e-04  3.51778e-04 -6.04343e-04
       O  1.52589e-04 -1.80132e-04  5.18337e-05
       H  3.36099e-04 -9.49605e-05  1.35428e-04
       H -4.18560e-04  3.01600e-04  5.09002e-04
       H -3.39324e-04  8.27979e-04 -6.48632e-04
13
# CELL(abcABC):   56.30000    56.30000    56.30000    90.00000    90.00000    90.00000  Step:         220  Bead:       0 velocities{atomic_unit}  cell{angstrom}
       O -2.89000e-04 -1.89970e-06 -1.21284e-04
       H -1.72255e-04 -9.40923e-05  6.00767e-05
       H  5.67475e-05 -7.83581e-05 -4.61184e-05
       O  1.01647e-04  2.71135e-04  3.90485e-05
       H -3.35073e-04 -3.56438e-04  8.60824e-06
       H  6.43230e-04 -2.07653e-04  1.59595e-05
       O -1.71154e-05 -1.90986e-05  2.47792e-05
       H  2.75142e-04 -2.24952e-04  1.25425e-05
       H  3.27365e-04  4.38600e-07  2.19317e-04
       O  2.02947e-04 -1.17048e-04  9.36105e-05
       H -1.91507e-04 -6.36343e-05  1.07828e-04
       H -2.04347e-04 -8.41991e-04 -2.06769e-04
       H -3.75161e-04 -2.45893e-04 -7.45341e-04
13
# CELL(abcABC):   56.30000    56.30000    56.30000    90.00000    90.00000    90.00000  Step:         230  Bead:       0 velocities{atomic_unit}  cell{angstrom}
       O -2.85725e-04 -2.04231e-05 -9.44798e-05
       H -8.89354e-05 -1.86133e-05 -2.83709e-05
       H -8.98233e-06 -1.56237e-04 -2.56653e-04
       O  1.06243e-04  2.60528e-04  7.43669e-05
       H -3.61315e-04 -9.55237e-05 -7.42071e-04
       H  6.16647e-05  3.33565e-05  3.28977e-05
       O  4.37342e-06  2.60604e-06  1.34651e-05
       H  2.72941e-04  1.99026e-04 -4.21113e-04
       H -7.20197e-04 -1.19678e-04  7.25615e-04
       O  1.65897e-04 -1.55084e-04  4.41950e-05
       H  3.21082e-04 -2.27339e-04  1.44582e-04
       H  2.01369e-04 -3.60980e-04  2.23224e-04
       H  4.68589e-04 -6.44949e-04 -2.74109e-04
13
# CELL(abcABC):   56.30000    56.30000    56.30000    90.00000    90.00000    90.00000  Step:         240  Bead:       0 velocities{atomic_unit}  cell{angstrom}
       O -2.80347e-04 -6.33877e-05 -7.20259e-05
       H -1.00132e-04  2.52942e-04 -3.94748e-04
       H  5.16096e-05 -1.51634e-04 -2.20865e-04
       O  1.10987e-04  2.46315e-04  9.85262e-05
       H -8.31804e-04  5.41666e-05 -6.13434e-04
       H -3.86024e-05  2.58989e-04 -3.97404e-04
       O  7.74443e-05  1.65680e-06 -2.81405e-05
       H -5.28396e-04  2.63112e-04 -4.98262e-04
       H -6.34115e-05 -3.42253e-04  7.29155e-04
       O  1.50011e-04 -2.06060e-04 -7.48591e-06
       H  3.65133e-04 -4.92221e-04  6.87103e-05
       H  3.90503e-04  2.39151e-04  7.87445e-04
       H -1.67078e-04  2.58635e-04  6.84265e-04
13
# CELL(abcABC):   56.30000    56.30000    56.30000    90.00000    90.00000    90.00000  Step:         250  Bead:       0 velocities{atomic_unit}  cell{angstrom}
       O -3.00045e-04 -3.59526e-05 -1.18380e-04
       H  1.48299e-04 -3.76329e-04  1.92675e-04
       H  1.29310e-04 -2.36709e-04 -1.74961e-04
       O  2.85225e-05  3.17622e-04  5.92916e-05
       H -7.70661e-04 -1.91426e-04 -3.46585e-04
       H  6.64009e-04 -5.71780e-04  1.92457e-04
       O  2.91475e-05 -6.57383e-05 -1.36130e-05
       H -1.47698e-04 -3.95362e-05 -2.88466e-04
       H  4.43492e-04  8.83397e-04  2.35053e-04
       O  1.60108e-04 -1.65180e-04  2.78484e-05
       H -1.04718e-04 -2.84462e-04  2.94636e-04
       H  7.76323e-04 -9.43188e-04 -1.62931e-04
       H  1.67506e-04  9.54441e-04  7.70091e-04
13
# CELL(abcABC):   56.30000    56.30000    56.30000    90.00000    90.00000    90.00000  Step:         260  Bead:       0 velocities{atomic_unit}  cell{angstrom}
       O -2.87666e-04 -7.44246e-05 -7.27656e-05
       H  7.79656e-06  2.90544e-04 -5.36495e-04
       H  8.52110e-05 -3.72152e-04 -2.65790e-04
       O  2.77866e-05  2.77426e-04  1.41455e-04
       H -8.12452e-04 -2.17642e-04 -3.23690e-04
       H  3.52465e-04  2.63246e-04 -9.74099e-04
       O -2.55744e-05  2.41306e-05  6.92084e-07
       H  6.63379e-04  2.32862e-05 -4.18937e-04
       H  6.62041e-04  5.03164e-04  1.83469e-04
       O  2.46043e-04 -2.32708e-04 -3.36708e-05
       H -9.51606e-05 -4.77499e-05  4.69267e-04
       H -4.40907e-04  1.16526e-06  8.27966e-04
       H  2.03210e-04 -3.55351e-04  4.71466e-04
13
# CELL(abcABC):   56.30000    56.30000    56.30000    90.00000    90.00000    90.00000  Step:         270  Bead:       0 velocities{atomic_unit}  cell{angstrom}
       O -2.84796e-04 -4.12328e-05 -1.20272e-04
       H  1.59529e-04 -2.64356e-04  1.18748e-04
       H  1.03769e-04 -2.68895e-04 -2.60624e-04
       O  4.14637e-05  2.81999e-04  6.33334e-05
       H -1.14696e-03  2.70064e-04 -3.49106e-04
       H  3.17377e-04 -7.24400e-05  3.24424e-04
       O  8.69574e-05  7.27051e-05  3.89141e-05
       H -2.23126e-04  5.08297e-05 -4.77168e-04
       H -4.75901e-04 -1.65729e-04 -1.84991e-04
       O  1.64211e-04 -1.48985e-04  6.65246e-05
       H  2.56321e-04 -3.34256e-04  1.33663e-04
       H  5.60361e-04 -9.77765e-04 -7.77768e-05
       H  3.24259e-04 -8.48405e-04  2.96297e-06
13
# CELL(abcABC):   56.30000    56.30000    56.30000    90.00000    90.00000    90.00000  Step:         280  Bead:       0 velocities{atomic_unit}  cell{angstrom}
       O -2.59773e-04 -4.93361e-05 -1.19349e-04
       H  4.39166e-06  2.79808e-05 -1.97577e-04
       H  8.09971e-05 -3.08735e-04 -1.91803e-04
       O  4.14057e-05  2.55227e-04  6.49063e-05
       H -8.93706e-04  1.72555e-04 -1.77554e-04
       H  1.74876e-05  4.28744e-04 -2.83812e-05
       O  1.04570e-04  1.95184e-05  2.79000e-05
       H -9.40887e-04  4.64647e-04  2.44125e-04
       H  2.13963e-04 -5.46046e-04 -9.54492e-05
       O  1.55731e-04 -1.83126e-04  5.80012e-05
       H  5.04679e-04 -6.23258e-04 -1.69307e-04
       H  3.72182e-04 -3.21410e-04  6.54433e-04
       H -2.47488e-05  3.43367e-05 -5.37842e-04
13
# CELL(abcABC):   56.30000    56.30000    56.30000    90.00000    90.00000    90.00000  Step:         290  Bead:       0 velocities{atomic_unit}  cell{angstrom}
       O -2.37244e-04 -3.54139e-05 -1.21325e-04
       H -1.37802e-04  4.99600e-05 -3.24062e-04
       H -9.24069e-05 -4.63928e-04 -2.32065e-04
       O -4.80256e-06  2.82079e-04  3.14069e-05
       H -2.13249e-04 -3.29871e-04  1.65195e-04
       H -1.33179e-05  3.39178e-04 -2.42693e-04
       O  9.91497e-05 -4.94929e-06  1.61660e-05
       H -2.20578e-04 -3.34227e-04  7.85112e-04
       H  2.59320e-04  7.55576e-04  1.41128e-04
       O  1.65304e-04 -2.04742e-04  4.31449e-05
       H  4.56837e-04 -2.43050e-04  2.32275e-04
       H  3.48607e-06 -5.82792e-04  6.43890e-04
       H -3.97973e-04  2.22249e-04 -6.82940e-04
13
# CELL(abcABC):   56.30000    56.30000    56.30000    90.00000    90.00000    90.00000  Step:         300  Bead:       0 velocities{atomic_unit}  cell{angstrom}
       O -2.33661e-04 -1.75735e-05 -1.41229e-04
       H -1.20931e-04 -3.70951e-04  1.09312e-04
       H -2.88651e-05 -4.53081e-05 -1.10674e-04
       O -2.37639e-05  2.85002e-04 -5.27448e-05
       H  1.50011e-04 -2.58458e-04  4.08842e-04
       H  9.77251e-05  5.20086e-05  5.64347e-04
       O  2.18877e-06  3.82594e-05 -1.24914e-05
       H  5.78532e-04  6.47683e-05  4.28191e-04
       H  2.51952e-04  3.79158e-04  7.30650e-04
       O  1.71503e-04 -1.72867e-04  8.81448e-05
       H -1.39210e-04 -3.98205e-04  2.38514e-04
       H  2.53647e-04 -1.16997e-03 -1.93158e-04
       H  2.86259e-04 -3.61348e-04 -2.97875e-04
13
# CELL(abcABC):   56.30000    56.30000    56.30000    90.00000    90.00000    90.00000  Step:         310  Bead:       0 velocities{atomic_unit}  cell{angstrom}
       O -1.86189e-04 -5.29206e-05 -5.33519e-05
       H -1.71740e-04  1.33848e-04 -6.17603e-04
       H -3.32073e-04  4.11203e-04 -2.81506e-04
       O  2.86689e-05  1.81421e-04  8.41815e-06
       H  2.10892e-04  3.88593e-05  5.55152e-05
       H -4.84217e-04  1.26034e-03  8.55889e-05
       O  1.00901e-04  8.60634e-05  5.66537e-06
       H -2.66097e-04  1.51389e-04 -5.78897e-04
       H -6.38474e-04 -3.73796e-04  9.96531e-05
       O  1.35284e-04 -2.62472e-04  2.68790e-06
       H  2.41725e-04 -2.15172e-04  1.35102e-04
       H -4.63652e-05 -3.12157e-04  1.11092e-03
       H  2.37672e-04 -3.34041e-04  5.71878e-04
13
# CELL(abcABC):   56.30000    56.30000    56.30000    90.00000    90.00000    90.00000  Step:         320  Bead:       0 velocities{atomic_unit}  cell{angstrom}
       O -1.52915e-04  1.37225e-05 -8.91357e-05
       H -3.35464e-04 -6.32638e-04  1.43863e-07
       H -4.53947e-04  5.37987e-04 -1.49334e-04
       O  2.16782e-06  1.97884e-04 -3.20074e-05
       H  4.28541e-04  3.35332e-05  2.12542e-04
       H  8.01604e-05  5.59100e-04  9.47416e-04
       O  3.46931e-05  3.94877e-05  1.60840e-05
       H -3.55656e-04  2.93019e-04 -6.77668e-04
       H  4.14807e-04 -2.70232e-04 -5.17534e-04
       O  3.45360e-05 -2.53149e-04  1.05681e-04
       H  3.08627e-04 -2.80684e-04 -1.05503e-04
       H  1.01213e-03 -7.81762e-04 -2.71600e-04
       H  1.94778e-04  5.74278e-04  5.51664e-04
13
# CELL(abcABC):   56.30000    56.30000    56.30000    90.00000    90.00000    90.00000  Step:         330  Bead:       0 velocities{atomic_unit}  cell{angstrom}
       O -1.39042e-04  2.34305e-05 -8.67613e-05
       H -5.68808e-04 -1.64434e-04 -4.98690e-04
       H -4.35355e-04  4.91149e-04  6.55950e-05
       O  4.57498e-06  1.68976e-04  2.39512e-05
       H  7.14580e-04 -1.56902e-04  6.85711e-04
       H  7.42266e-05  7.46013e-04 -1.71581e-04
       O -2.59948e-05  2.62973e-05  1.28068e-05
       H  6.53815e-04 -2.60788e-04 -1.14954e-04
       H  8.72152e-04  7.60704e-04 -9.77712e-04
       O  9.04202e-05 -2.65153e-04  6.04631e-05
       H -1.13588e-04 -4.72525e-04 -1.01712e-04
       H  1.28387e-04 -5.53107e-04  7.31168e-04
       H -2.13619e-04  3.47198e-04  2.16141e-04
13
# CELL(abcABC):   56.30000    56.30000    56.30000    90.00000    90.00000    90.00000  Step:         340  Bead:       0 velocities{atomic_unit}  cell{angstrom}
       O -1.14491e-04  6.48453e-05 -1.05689e-04
       H -5.57005e-04  1.91050e-05 -7.16144e-05
       H -7.03804e-04  4.68886e-04 -2.96704e-04
       O  3.59605e-05  1.50361e-04  8.64510e-06
       H  8.51425e-04 -1.85495e-04  4.14447e-04
       H  7.23362e-05  7.52659e-04  2.96718e-04
       O -1.94486e-05  5.82737e-05 -2.47913e-05
       H  5.58657e-04  3.28671e-05  2.77854e-04
       H -1.48501e-04  2.70108e-04 -5.59127e-04
       O  7.14311e-05 -2.71466e-04  8.43567e-05
       H  2.91363e-04  8.12541e-05  3.96236e-04
       H -1.38307e-04 -9.78092e-04  1.77744e-04
       H  1.95237e-04 -4.93248e-04 -4.06430e-05
13
# CELL(abcABC):   56.30000    56.30000    56.30000    90.00000    90.00000    90.00000  Step:         350  Bead:       0 velocities{atomic_unit}  cell{angstrom}
       O -1.10284e-04  8.90378e-05 -1.49030e-04
       H -5.64699e-04  3.13024e-05  2.10054e-04
       H -4.96990e-04  7.69213e-04 -1.27509e-05
       O  1.15761e-04  7.41488e-05 -2.60028e-05
       H  5.20776e-04  3.55953e-04  4.78377e-04
       H -7.31906e-05  1.03528e-03  7.38281e-04
       O  1.01001e-05  1.25945e-04 -8.58629e-05
       H -7.30607e-04  1.85812e-04  5.46267e-04
       H -4.39121e-04 -1.10907e-03  1.47742e-04
       O  7.16118e-05 -2.46380e-04  1.65859e-04
       H -1.11537e-04 -5.59945e-04 -3.67207e-04
       H  1.55268e-04 -8.37504e-04 -1.26051e-04
       H  3.56114e-04 -5.49650e-04 -1.06160e-04
13
# CELL(abcABC):   56.30000    56.30000    56.30000    90.00000    90.00000    90.00000  Step:         360  Bead:       0 velocities{atomic_unit}  cell{angstrom}
       O -7.39317e-05  1.47434e-04 -1.06990e-04
       H -8.67220e-04  1.50675e-04 -3.88909e-04
       H -6.74798e-04  1.89016e-04 -8.92332e-05
       O  1.26714e-04  6.26782e-05  5.92894e-05
       H  8.02580e-04  4.88176e-05  2.85940e-04
       H -1.34170e-04  1.04930e-03 -3.14379e-04
       O  2.59712e-05  2.76657e-05 -9.11949e-05
       H -7.10220e-04 -4.34722e-05  6.43954e-04
       H -3.73541e-04  2.51992e-04  7.72078e-05
       O  2.25646e-05 -3.21579e-04  1.08640e-04
       H  6.01188e-04  4.72878e-05 -2.54598e-04
       H -8.20175e-05 -5.45255e-04  8.71743e-04
       H -1.70064e-04  1.81838e-04 -3.51473e-04
13
# CELL(abcABC):   56.30000    56.30000    56.30000    90.00000    90.00000    90.00000  Step:         370  Bead:       0 velocities{atomic_unit}  cell{angstrom}
       O -9.91781e-05  1.93073e-04 -1.50263e-04
       H -6.12952e-04 -3.76434e-04  2.72609e-04
       H -5.51397e-04  2.60849e-04  1.06685e-04
       O  1.01616e-04  6.41137e-05  1.05689e-06
       H  7.03260e-04  1.58016e-04  6.36024e-04
       H  6.43055e-04  5.28070e-04  5.84886e-04
       O -1.13801e-04  2.19370e-05 -8.20512e-05
       H  3.95435e-04 -1.74068e-04  1.09254e-04
       H  9.61895e-04  8.41656e-04  1.15756e-04
       O  2.03216e-05 -3.05191e-04  1.92550e-04
       H  1.09460e-04 -1.68172e-04 -1.97101e-04
       H  2.17010e-04 -8.57649e-04 -5.05570e-04
       H -4.20634e-04  2.01500e-04 -5.08131e-04
13