13
# CELL(abcABC):   56.30000    56.30000    56.30000    90.00000    90.00000    90.00000  Step:           0  Bead:       0 velocities{atomic_unit}  cell{angstrom}
       O -3.90014e-04 -1.90437e-05 -1.34493e-04
       H -1.38206e-04 -2.44317e-04 -1.85333e-04
       H -5.05925e-05  2.30145e-04  2.92861e-04
       O  4.06541e-04  1.76213e-04 -4.21717e-05
       H -3.10556e-04  7.29100e-04  2.06748e-04
       H -9.00888e-04  1.94471e-05  2.01530e-04
       O -7.69904e-05 -5.81071e-05  7.39234e-05
       H  1.83971e-04 -3.40003e-04  4.60114e-04
       H -4.27952e-04 -7.15588e-04 -1.59836e-06
       O  1.21585e-04  4.83585e-05  1.29839e-04
       H  6.83529e-06 -9.78806e-04 -1.06063e-03
       H  7.82020e-04  3.60588e-04  2.96233e-04
       H -1.14828e-04 -1.40063e-03 -6.40066e-04
13
# CELL(abcABC):   56.30000    56.30000    56.30000    90.00000    90.00000    90.00000  Step:          10  Bead:       0 velocities{atomic_unit}  cell{angstrom}
       O -3.66879e-04 -2.33313e-06 -6.94187e-05
       H -1.46622e-04 -2.56517e-04 -2.45292e-04
       H -3.82123e-04 -8.64291e-05 -5.97012e-04
       O  3.51094e-04  2.40485e-04  3.50372e-05
       H  2.89768e-04 -2.08726e-04 -4.53308e-04
       H -6.88681e-04 -1.39798e-04 -3.40697e-04
       O -6.05912e-05 -1.79138e-04  6.76314e-05
       H -2.62355e-04 -1.71129e-04  4.48853e-04
       H -1.12347e-04  1.31099e-04 -2.15624e-04
       O  1.07906e-04  3.10733e-05  9.25566e-06
       H  7.21361e-04 -8.11198e-04  8.86751e-04
       H  1.82554e-04  3.10203e-04  1.15114e-04
       H -1.02052e-04 -1.97489e-04 -2.73491e-04
13
# CELL(abcABC):   56.30000    56.30000    56.30000    90.00000    90.00000    90.00000  Step:          20  Bead:       0 velocities{atomic_unit}  cell{angstrom}
       O -3.77696e-04 -1.79479e-05 -8.74145e-05
       H -2.03469e-04 -3.46467e-04 -3.42337e-04
       H -1.47479e-04  1.55856e-04  3.00145e-05
       O  3.44555e-04  2.42345e-04 -3.23950e-06
       H  1.05511e-04 -1.41985e-04  4.60419e-04
       H -3.94617e-04 -4.62134e-04 -6.25124e-04
       O -7.00159e-05 -2.06842e-04  4.56874e-05
       H -6.28978e-04 -9.50019e-05  1.15638e-05
       H  8.04612e-04 -5.84021e-05 -9.90398e-05
       O  2.03367e-04  3.00432e-05  3.90164e-05
       H -6.62681e-04 -9.18181e-04  4.17837e-04
       H -3.15898e-04  2.23285e-04 -1.37076e-04
       H -1.47662e-04  8.87483e-04  3.78193e-04
13
# CELL(abcABC):   56.30000    56.30000    56.30000    90.00000    90.00000    90.00000  Step:          30  Bead:       0 velocities{atomic_unit}  cell{angstrom}
       O -3.71213e-04 -7.51717e-06 -6.73940e-05
       H -2.67096e-04 -4.18723e-04 -1.97017e-04
       H -1.75794e-04  2.10759e-04 -1.71092e-04
       O  3.47798e-04  1.73045e-04  7.29193e-07
       H  2.65056e-04  3.86781e-04 -2.10196e-05
       H -5.20866e-04  3.50418e-05 -2.42914e-04
       O -4.49763e-05 -1.61215e-04  4.31748e-05
       H  1.80158e-04  8.90224e-05 -5.45525e-04
       H -7.13184e-05  1.00933e-04  1.60497e-04
       O  7.56183e-05  1.21490e-05  3.83692e-05
       H  9.38280e-05 -7.60895e-04  4.62514e-04
       H  3.05855e-04  3.68153e-04 -1.51037e-04
       H  7.54623e-05 -2.72387e-04  4.69412e-04
13
# CELL(abcABC):   56.30000    56.30000    56.30000    90.00000    90.00000    90.00000  Step:          40  Bead:       0 velocities{atomic_unit}  cell{angstrom}
       O -3.62556e-04  1.53382e-08 -4.64264e-05
       H -1.91803e-04 -1.73729e-04 -2.79842e-04
       H -3.33645e-04  2.81372e-05 -4.63618e-04
       O  3.20283e-04  1.20851e-04  4.43093e-05
       H  6.05800e-04  5.44608e-04 -7.13047e-04
       H -3.34983e-04  4.73120e-04 -1.36362e-04
       O -1.56376e-05 -6.70888e-05  3.41789e-05
       H  5.29877e-04 -1.01623e-04 -6.86647e-04
       H -2.98509e-04 -2.84731e-04  3.13731e-04
       O -2.97323e-05 -2.10314e-05  2.82741e-05
       H  8.23388e-04 -5.07183e-04  2.19943e-04
       H  4.93022e-04  6.55458e-04  5.00024e-04
       H  9.80404e-05 -1.15386e-03  2.88085e-04
13
# CELL(abcABC):   56.30000    56.30000    56.30000    90.00000    90.00000    90.00000  Step:          50  Bead:       0 velocities{atomic_unit}  cell{angstrom}
       O -3.59295e-04  1.64389e-06 -1.33755e-04
       H -3.15418e-04 -6.36031e-05 -1.56753e-05
       H -5.46696e-05  1.13222e-04  2.88832e-04
       O  3.06963e-04  1.36558e-04 -5.80410e-06
       H  1.96841e-04  6.35505e-04  5.07397e-04
       H  2.54137e-04 -3.54782e-04 -2.65873e-04
       O  2.62747e-05 -1.41770e-04  1.49429e-05
       H -2.69502e-04 -9.05354e-05  1.01105e-04
       H  3.92062e-04  6.65439e-05 -1.23497e-04
       O  2.99068e-05  1.43782e-05  1.15141e-04
       H -3.95781e-04 -9.51067e-04 -1.30077e-04
       H  1.21657e-04  2.83501e-04 -2.60219e-04
       H  9.56133e-06  1.89621e-04  4.84117e-05
13
# CELL(abcABC):   56.30000    56.30000    56.30000    90.00000    90.00000    90.00000  Step:          60  Bead:       0 velocities{atomic_unit}  cell{angstrom}
       O -3.15991e-04  3.79648e-05 -1.04832e-04
       H -3.44634e-04  1.90966e-04 -2.19472e-05
       H -5.14895e-04 -4.25177e-04 -4.31495e-04
       O  2.36345e-04  1.70260e-04  7.82192e-05
       H  7.61455e-04 -1.54091e-04 -3.62228e-04
       H  8.50802e-04 -5.18143e-04 -5.59259e-04
       O  7.06448e-05 -1.73977e-04 -6.45507e-06
       H -6.68545e-04  4.66261e-05  6.53563e-04
       H  5.14962e-04  2.13287e-04 -2.75554e-04
       O  5.02236e-06 -4.69915e-05  4.04340e-05
       H  1.93800e-04  8.36710e-05  1.30934e-03
       H -6.84963e-04  5.95390e-05 -2.37682e-04
       H -4.48209e-05  7.05619e-04 -1.91654e-04
13
# CELL(abcABC):   56.30000    56.30000    56.30000    90.00000    90.00000    90.00000  Step:          70  Bead:       0 velocities{atomic_unit}  cell{angstrom}
       O -3.28298e-04  2.98693e-05 -1.39287e-04
       H -3.78404e-04  3.36868e-04 -9.28275e-05
       H -2.14620e-04 -1.52452e-04  2.83064e-04
       O  2.65604e-04  5.79166e-05  2.16966e-06
       H  5.62022e-04  9.36008e-04  3.18202e-04
       H  7.96837e-04 -2.98190e-05 -8.60259e-05
       O  8.65019e-05 -2.85636e-05 -1.17344e-05
       H  5.77602e-06 -2.56191e-04  1.81554e-04
       H -1.60760e-04 -4.01842e-04  2.20026e-04
       O -2.76592e-05 -1.29585e-05  1.22167e-04
       H -3.37417e-04 -7.47085e-04 -2.18778e-05
       H -3.07399e-04  4.16120e-04  1.71634e-05
       H  9.50989e-05 -8.35968e-04 -3.95696e-04
13
# CELL(abcABC):   56.30000    56.30000    56.30000    90.00000    90.00000    90.00000  Step:          80  Bead:       0 velocities{atomic_unit}  cell{angstrom}
       O -3.05435e-04  4.78350e-05 -1.12667e-04
       H -5.11723e-04  2.04563e-04  2.29818e-04
       H -3.42032e-04 -7.96231e-05 -1.65138e-04
       O  2.53745e-04  3.24797e-05 -2.75281e-07
       H  8.99386e-04  1.06414e-03 -1.51785e-04
       H  7.61097e-04 -7.69471e-06  4.09621e-04
       O  9.24603e-05 -5.56111e-05 -2.59655e-05
       H  4.86136e-04  1.64042e-04 -1.91258e-04
       H -5.47376e-04 -5.27427e-05  3.77698e-04
       O -1.75512e-04 -6.74498e-05  1.31294e-04
       H  5.88677e-04 -1.71919e-04  6.95675e-05
       H  4.97319e-04  5.00704e-04 -2.62322e-04
       H  3.07333e-04 -9.42937e-04 -1.95354e-04
13
# CELL(abcABC):   56.30000    56.30000    56.30000    90.00000    90.00000    90.00000  Step:          90  Bead:       0 velocities{atomic_unit}  cell{angstrom}
       O -2.99761e-04  2.56793e-05 -6.92561e-05
       H -4.25889e-04  4.56884e-04 -1.63933e-04
       H -3.75618e-04  1.48882e-05 -2.21180e-04
       O  2.15625e-04  2.87987e-05  3.09261e-05
       H  1.01784e-03  5.85694e-04  1.48436e-04
       H  1.32323e-03  1.14292e-04 -2.43465e-04
       O  1.01874e-04 -9.69925e-05 -4.17249e-05
       H -2.34484e-04 -5.61784e-05 -5.20433e-04
       H  6.34652e-04  9.65048e-06  2.41954e-04
       O -9.92114e-05 -1.14105e-04  6.15667e-05
       H -2.47041e-04  3.95996e-06  4.00314e-04
       H -3.18664e-04  5.74031e-04  3.10316e-04
       H -8.07702e-05  7.82856e-04  3.41461e-04
13
# CELL(abcABC):   56.30000    56.30000    56.30000    90.00000    90.00000    90.00000  Step:         100  Bead:       0 velocities{atomic_unit}  cell{angstrom}
       O -2.82249e-04  5.38951e-05 -1.07664e-04
       H -7.11904e-04  1.05916e-04  1.08680e-04
       H -2.16423e-04  1.84676e-04  2.55136e-04
       O  2.42619e-04  4.66697e-05 -1.59540e-05
       H  5.71028e-04  5.08881e-04  7.92904e-04
       H  1.41470e-03 -2.39765e-04 -4.83957e-05
       O  8.78292e-05 -1.40182e-04 -4.06946e-05
       H -9.88903e-05  1.34736e-04 -5.50757e-04
       H  3.54460e-04  4.51799e-04  2.29557e-06
       O -5.53216e-05 -7.02212e-05  1.15685e-04
       H -1.12146e-03 -1.49602e-04  4.33748e-04
       H -2.07093e-04 -1.54020e-04 -6.39445e-04
       H  1.28654e-04  9.00883e-04  4.17720e-04
13
# CELL(abcABC):   56.30000    56.30000    56.30000    90.00000    90.00000    90.00000  Step:         110  Bead:       0 velocities{atomic_unit}  cell{angstrom}
       O -2.56826e-04  7.26924e-05 -5.68326e-05
       H -6.78342e-04  3.59799e-04 -8.50271e-05
       H -5.40392e-04 -3.07087e-05 -4.09345e-04
       O  2.67613e-04 -1.91283e-05  3.02761e-05
       H  1.05179e-03  8.78584e-04 -2.13256e-04
       H  7.36615e-04  4.33513e-04  2.25046e-04
       O  4.10563e-05  1.83642e-06 -5.60953e-05
       H  5.59652e-04 -9.71792e-05 -5.21373e-04
       H -1.92235e-04 -3.22529e-04  3.16920e-04
       O -1.38865e-04 -1.30334e-04  8.16302e-05
       H  2.81515e-04  3.69145e-04  4.40142e-04
       H -1.48694e-04  4.62341e-04  6.00230e-05
       H  3.11422e-04 -8.63511e-04  2.03087e-04
13
# CELL(abcABC):   56.30000    56.30000    56.30000    90.00000    90.00000    90.00000  Step:         120  Bead:       0 velocities{atomic_unit}  cell{angstrom}
       O -2.61630e-04  6.31172e-05 -1.17069e-04
       H -7.13815e-04  4.85041e-04  2.26542e-05
       H -2.01544e-04  2.50700e-04  2.25556e-04
       O  3.50144e-04 -2.98991e-05 -2.92867e-05
       H  6.27858e-05  9.62656e-04  5.98792e-04
       H  4.50221e-04  5.14570e-04  4.32692e-04
       O  6.75694e-05 -2.88169e-05 -5.54253e-05
       H  1.06013e-04 -1.36347e-04  1.17847e-04
       H -3.83998e-04 -1.14508e-04 -4.87886e-05
       O -1.24289e-04 -7.72803e-05  1.53338e-04
       H -1.96383e-04 -5.97802e-04 -5.06972e-04
       H  3.44528e-04  5.79842e-04  2.31480e-05
       H  2.75224e-05 -7.87317e-04 -9.59826e-05
13
# CELL(abcABC):   56.30000    56.30000    56.30000    90.00000    90.00000    90.00000  Step:         130  Bead:       0 velocities{atomic_unit}  cell{angstrom}
       O -2.28484e-04  9.78920e-05 -1.07973e-04
       H -8.09913e-04  1.66001e-04  2.74109e-04
       H -3.95570e-04  1.01297e-04 -2.75169e-04
       O  2.63415e-04  2.45588e-05 -6.65513e-06
       H  9.14133e-04  3.96104e-04  2.76289e-04
       H  9.11960e-04  1.83151e-04  4.67834e-04
       O  1.94167e-05 -1.29514e-04 -4.82590e-05
       H -6.83163e-04  1.13442e-04  7.75642e-04
       H  6.37559e-04 -4.04897e-05 -3.90763e-04
       O -9.30808e-05 -1.03261e-04  1.40007e-04
       H  8.03472e-05  3.02688e-04  2.77006e-04
       H  1.85338e-05 -9.71223e-05 -5.08567e-04
       H -5.90654e-05  6.26141e-04 -5.33202e-04
13
# CELL(abcABC):   56.30000    56.30000    56.30000    90.00000    90.00000    90.00000  Step:         140  Bead:       0 velocities{atomic_unit}  cell{angstrom}
       O -2.23130e-04  7.64408e-05 -6.59426e-05
       H -8.40033e-04  4.34833e-04 -3.61026e-04
       H -3.48762e-04  1.62413e-04 -7.43052e-05
       O  2.85214e-04  2.47712e-05  1.07965e-06
       H  7.29795e-04  2.24374e-05  6.05832e-04
       H  5.92021e-04  7.80110e-04 -1.14724e-04
       O  2.62173e-05 -8.39473e-05 -3.08692e-05
       H -5.48324e-04 -3.94473e-04  3.27815e-04
       H  2.44378e-04  1.84042e-04 -2.87512e-04
       O  2.88338e-05 -1.32988e-04  1.00418e-04
       H -4.42167e-04  2.31050e-04  2.41183e-04
       H -9.40525e-04  4.17091e-04  1.06839e-04
       H -3.05705e-04 -5.79882e-07 -5.18489e-04
13
# CELL(abcABC):   56.30000    56.30000    56.30000    90.00000    90.00000    90.00000  Step:         150  Bead:       0 velocities{atomic_unit}  cell{angstrom}
       O -2.22600e-04  1.00534e-04 -7.72421e-05
       H -8.79384e-04 -2.88841e-04  9.65832e-05
       H -2.67038e-04  4.96024e-04  3.17152e-05
       O  3.38241e-04  6.69679e-05 -5.53080e-05
       H  2.24026e-04  1.84851e-04  2.87777e-04
       H  4.88170e-05  2.67078e-04  9.04025e-04
       O -6.78437e-05 -4.36791e-05 -3.63915e-05
       H  3.95863e-04  2.36839e-04 -1.73113e-04
       H -2.68894e-04 -1.68546e-04  1.52001e-04
       O -4.26958e-05 -6.41529e-05  1.59700e-04
       H -1.34668e-04 -1.70091e-04 -1.88147e-04
       H  3.99233e-04 -3.24553e-04 -6.07217e-04
       H  4.01066e-04 -1.17993e-03 -3.56925e-04
13
# CELL(abcABC):   56.30000    56.30000    56.30000    90.00000    90.00000    90.00000  Step:         160  Bead:       0 velocities{atomic_unit}  cell{angstrom}
       O -2.09651e-04  5.88880e-05 -5.57896e-06
       H -8.36776e-04  6.55735e-05 -3.33049e-04
       H -4.25650e-04  4.80024e-04 -4.72172e-04
       O  3.18941e-04  4.85432e-05  1.62421e-05
       H  6.70088e-04  1.87524e-04 -1.95601e-04
       H -4.44281e-04  8.02887e-04  2.27555e-04
       O -1.64709e-05 -5.12550e-05 -4.25059e-05
       H -2.00398e-04 -1.22083e-04 -5.67448e-04
       H -2.68311e-05 -2.01340e-05  8.31101e-05
       O -6.04084e-05 -1.57368e-04  7.40092e-05
       H  6.09218e-04 -2.08647e-05 -1.08549e-05
       H  2.27530e-04  6.78833e-04  2.83297e-04
       H -8.73702e-05 -4.45500e-04  3.15839e-04
13
# CELL(abcABC):   56.30000    56.30000    56.30000    90.00000    90.00000    90.00000  Step:         170  Bead:       0 velocities{atomic_unit}  cell{angstrom}
       O -2.24080e-04  4.92782e-05 -4.83561e-05
       H -7.83812e-04 -2.12445e-04 -1.90048e-04
       H -2.18527e-04  6.41787e-04 -1.72681e-05
       O  2.70973e-04  1.19859e-04 -2.99594e-05
       H  2.12902e-04 -3.55254e-04  6.03567e-04
       H  2.62085e-04  4.77161e-04  2.74638e-04
       O -4.02221e-05 -1.62095e-04 -5.67053e-05
       H -5.07731e-04  1.43918e-04 -1.88071e-04
       H  6.61085e-04  4.32680e-04 -2.14008e-04
       O  3.16416e-05 -1.29743e-04  9.82260e-05
       H -4.50321e-04 -1.84749e-04 -1.70421e-04
       H  2.21541e-04  1.40676e-05 -2.35526e-04
       H -5.37438e-06  9.90510e-04  7.21194e-04
13
# CELL(abcABC):   56.30000    56.30000    56.30000    90.00000    90.00000    90.00000  Step:         180  Bead:       0 velocities{atomic_unit}  cell{angstrom}
       O -2.31527e-04  7.33644e-05 -5.21006e-05
       H -6.41839e-04 -3.59704e-04 -1.81577e-05
       H -3.40816e-04  2.38220e-04 -3.61111e-04
       O  1.91676e-04  1.62741e-04 -9.04953e-06
       H  7.53213e-04 -4.16453e-04  2.59544e-04
       H  4.29638e-04  3.03413e-04  3.56665e-04
       O -5.96274e-05 -7.39597e-05 -5.10697e-05
       H  2.08453e-04 -3.10438e-04 -1.20269e-04
       H  3.12429e-04  2.24738e-04 -1.57765e-04
       O  6.94815e-05 -1.47159e-04  7.08849e-05
       H -1.20448e-04  4.44479e-04  3.82846e-04
       H -1.09776e-04 -3.70586e-04 -4.16490e-04
       H -1.47059e-05  8.44507e-06  7.30862e-04
13
# CELL(abcABC):   56.30000    56.30000    56.30000    90.00000    90.00000    90.00000  Step:         190  Bead:       0 velocities{atomic_unit}  cell{angstrom}
       O -2.41823e-04  3.15493e-05 -5.58497e-05
       H -6.65528e-04  1.81403e-04 -4.30160e-04
       H -2.06073e-04  2.28959e-04 -1.43633e-04
       O  2.48496e-04  1.60375e-04  5.67183e-05
       H -7.65693e-06 -1.89782e-04 -1.14499e-04
       H -2.57103e-04  5.78098e-04 -2.40435e-04
       O -6.90822e-05 -1.90564e-05 -1.98907e-05
       H  5.95589e-04 -1.37578e-05 -5.59022e-05
       H -5.38245e-04 -2.66402e-04 -1.19162e-04
       O  1.02428e-04 -1.55815e-04  6.17412e-05
       H  1.19689e-04 -2.26788e-04 -1.16865e-04
       H -2.40723e-04  4.97383e-04  3.68815e-04
       H  5.64808e-04 -1.05981e-03  1.73744e-04
13
# CELL(abcABC):   56.30000    56.30000    56.30000    90.00000    90.00000    90.00000  Step:         200  Bead:       0 velocities{atomic_unit}  cell{angstrom}
       O -2.68145e-04  4.44290e-05 -1.22295e-04
       H -2.96326e-04 -2.91239e-04  3.28682e-04
       H -1.10561e-04  1.52019e-04 -1.46497e-04
       O  2.14966e-04  2.08696e-04  2.84699e-05
       H -1.60568e-04 -9.31023e-05 -4.06264e-04
       H -1.10343e-04 -1.61060e-05  6.80842e-04
       O  1.59028e-05 -2.96582e-05 -8.47062e-06
       H -3.70381e-04 -1.11403e-04  3.28291e-04
       H -7.01674e-05 -5.63446e-04 -4.44949e-04
       O  4.16079e-05 -7.36180e-05  1.12808e-04
       H  4.80682e-04 -4.90048e-04 -2.09571e-04
       H  7.83567e-04 -7.34016e-04 -1.96055e-04
       H -2.14669e-04 -2.31263e-04 -1.01344e-04
13
# CELL(abcABC):   56.30000    56.30000    56.30000    90.00000    90.00000    90.00000  Step:         210  Bead:       0 velocities{atomic_unit}  cell{angstrom}
       O -2.60225e-04 -5.79405e-07 -8.43379e-05
       H -4.33102e-04  3.23008e-04 -3.30083e-04
       H -9.29911e-05 -1.31025e-04 -2.72896e-04
       O  1.20432e-04  2.26580e-04  1.04258e-04
       H  1.40387e-04 -3.62304e-04 -2.46132e-04
       H  4.29220e-04  1.99751e-04 -5.99493e-04
       O  2.95033e-05 -1.30313e-04  2.08913e-05
       H -5.49517e-04 -7.35864e-05  5.87760e-04
       H  2.56705e-04  3.50904e-04 -6.04451e-04
       O  1.52740e-04 -1.79935e-04  5.19235e-05
       H  3.34469e-04 -9.60170e-05  1.34776e-04
       H -4.18267e-04  2.99447e-04  5.06566e-04
       H -3.40748e-04  8.27101e-04 -6.48069e-04
13
# CELL(abcABC):   56.30000    56.30000    56.30000    90.00000    90.00000    90.00000  Step:         220  Bead:       0 velocities{atomic_unit}  cell{angstrom}
       O -2.88954e-04 -1.86168e-06 -1.21273e-04
       H -1.72175e-04 -9.42186e-05  6.01499e-05
       H  5.63119e-05 -7.86132e-05 -4.69479e-05
       O  1.01604e-04  2.71240e-04  3.91857e-05
       H -3.34852e-04 -3.56826e-04  7.08114e-06
       H  6.42570e-04 -2.08560e-04  1.52246e-05
       O -1.70742e-05 -1.91049e-05  2.50074e-05
       H  2.74875e-04 -2.25434e-04  1.21641e-05
       H  3.24940e-04  1.19131e-06  2.19157e-04
       O  2.03028e-04 -1.17138e-04  9.33838e-05
       H -1.90046e-04 -6.36126e-05  1.08515e-04
       H -2.05814e-04 -8.40479e-04 -2.05093e-04
       H -3.73659e-04 -2.46764e-04 -7.46518e-04
13
# CELL(abcABC):   56.30000    56.30000    56.30000    90.00000    90.00000    90.00000  Step:         230  Bead:       0 velocities{atomic_unit}  cell{angstrom}
       O -2.85691e-04 -2.04198e-05 -9.45190e-05
       H -8.90198e-05 -1.83199e-05 -2.86321e-05
       H -8.94209e-06 -1.56485e-04 -2.56547e-04
       O  1.06294e-04  2.60584e-04  7.44152e-05
       H -3.62154e-04 -9.52962e-05 -7.42721e-04
       H  6.11062e-05  3.23347e-05  3.27482e-05
       O  4.39373e-06  2.66442e-06  1.35766e-05
       H  2.71545e-04  1.99824e-04 -4.20351e-04
       H -7.19314e-04 -1.21725e-04  7.26191e-04
       O  1.65854e-04 -1.54906e-04  4.42534e-05
       H  3.21669e-04 -2.28454e-04  1.43947e-04
       H  2.03048e-04 -3.62619e-04  2.22125e-04
       H  4.67289e-04 -6.44892e-04 -2.75604e-04
13
# CELL(abcABC):   56.30000    56.30000    56.30000    90.00000    90.00000    90.00000  Step:         240  Bead:       0 velocities{atomic_unit}  cell{angstrom}
       O -2.80358e-04 -6.33903e-05 -7.21321e-05
       H -1.00198e-04  2.52857e-04 -3.94285e-04
       H  5.22753e-05 -1.52006e-04 -2.20296e-04
       O  1.10966e-04  2.46326e-04  9.85638e-05
       H -8.32321e-04  5.44005e-05 -6.13841e-04
       H -3.86673e-05  2.58581e-04 -3.97712e-04
       O  7.74260e-05  1.50361e-06 -2.80064e-05
       H -5.29042e-04  2.62789e-04 -4.97203e-04
       H -6.35030e-05 -3.40270e-04  7.29398e-04
       O  1.50236e-04 -2.06172e-04 -7.58138e-06
       H  3.65384e-04 -4.92759e-04  6.88631e-05
       H  3.88761e-04  2.41346e-04  7.87937e-04
       H -1.67629e-04  2.60020e-04  6.82477e-04
13
# CELL(abcABC):   56.30000    56.30000    56.30000    90.00000    90.00000    90.00000  Step:         250  Bead:       0 velocities{atomic_unit}  cell{angstrom}
       O -3.00038e-04 -3.59510e-05 -1.18395e-04
       H  1.48637e-04 -3.75764e-04  1.93220e-04
       H  1.29134e-04 -2.37393e-04 -1.75762e-04
       O  2.85126e-05  3.17700e-04  5.94084e-05
       H -7.70743e-04 -1.91558e-04 -3.48302e-04
       H  6.63432e-04 -5.72897e-04  1.92163e-04
       O  2.89814e-05 -6.56195e-05 -1.36508e-05
       H -1.46721e-04 -3.99449e-05 -2.87898e-04
       H  4.43896e-04  8.83162e-04  2.36813e-04
       O  1.60190e-04 -1.65211e-04  2.77030e-05
       H -1.04360e-04 -2.83560e-04  2.95655e-04
       H  7.76619e-04 -9.44163e-04 -1.63328e-04
       H  1.67334e-04  9.53875e-04  7.70692e-04
13
# CELL(abcABC):   56.30000    56.30000    56.30000    90.00000    90.00000    90.00000  Step:         260  Bead:       0 velocities{atomic_unit}  cell{angstrom}
       O -2.87703e-04 -7.44792e-05 -7.28145e-05
       H  7.88808e-06  2.91449e-04 -5.36808e-04
       H  8.61307e-05 -3.71491e-04 -2.64694e-04
       O  2.78765e-05  2.77271e-04  1.41417e-04
       H -8.14454e-04 -2.16161e-04 -3.22629e-04
       H  3.52380e-04  2.64241e-04 -9.74365e-04
       O -2.55911e-05  2.42023e-05  6.62245e-07
       H  6.63986e-04  2.40111e-05 -4.19236e-04
       H  6.59933e-04  5.02489e-04  1.83978e-04
       O  2.46182e-04 -2.32670e-04 -3.36723e-05
       H -9.68852e-05 -4.89261e-05  4.68141e-04
       H -4.39703e-04  8.65022e-07  8.26553e-04
       H  2.03523e-04 -3.56384e-04  4.74088e-04
13
# CELL(abcABC):   56.30000    56.30000    56.30000    90.00000    90.00000    90.00000  Step:         270  Bead:       0 velocities{atomic_unit}  cell{angstrom}
       O -2.84757e-04 -4.11183e-05 -1.20230e-04
       H  1.59975e-04 -2.64999e-04  1.18921e-04
       H  1.03358e-04 -2.69426e-04 -2.60969e-04
       O  4.13776e-05  2.81973e-04  6.34815e-05
       H -1.14642e-03  2.70496e-04 -3.51042e-04
       H  3.17908e-04 -7.30918e-05  3.24752e-04
       O  8.67321e-05  7.27253e-05  3.90691e-05
       H -2.23804e-04  5.04951e-05 -4.78232e-04
       H -4.75278e-04 -1.66137e-04 -1.86071e-04
       O  1.64159e-04 -1.49276e-04  6.60944e-05
       H  2.58346e-04 -3.33435e-04  1.34543e-04
       H  5.60552e-04 -9.75149e-04 -7.48104e-05
       H  3.26116e-04 -8.46803e-04  4.39241e-06
13
# CELL(abcABC):   56.30000    56.30000    56.30000    90.00000    90.00000    90.00000  Step:         280  Bead:       0 velocities{atomic_unit}  cell{angstrom}
       O -2.59742e-04 -4.92724e-05 -1.19251e-04
       H  4.77630e-06  2.80815e-05 -1.98278e-04
       H  8.07662e-05 -3.08951e-04 -1.91960e-04
       O  4.13303e-05  2.55036e-04  6.48656e-05
       H -8.93765e-04  1.74000e-04 -1.75845e-04
       H  1.82275e-05  4.29559e-04 -2.89335e-05
       O  1.04553e-04  1.94184e-05  2.80854e-05
       H -9.40647e-04  4.64804e-04  2.43007e-04
       H  2.15725e-04 -5.44611e-04 -9.72839e-05
       O  1.55747e-04 -1.83005e-04  5.80318e-05
       H  5.03269e-04 -6.24153e-04 -1.68972e-04
       H  3.74290e-04 -3.23215e-04  6.51190e-04
       H -2.75494e-05  3.49882e-05 -5.36619e-04
13
# CELL(abcABC):   56.30000    56.30000    56.30000    90.00000    90.00000    90.00000  Step:         290  Bead:       0 velocities{atomic_unit}  cell{angstrom}
       O -2.37308e-04 -3.53468e-05 -1.21342e-04
       H -1.37053e-04  4.99651e-05 -3.23999e-04
       H -9.15527e-05 -4.63287e-04 -2.31346e-04
       O -4.90169e-06  2.81948e-04  3.13944e-05
       H -2.12223e-04 -3.29694e-04  1.64748e-04
       H -1.25952e-05  3.40154e-04 -2.42551e-04
       O  9.88742e-05 -4.97831e-06  1.64360e-05
       H -2.19922e-04 -3.34423e-04  7.84223e-04
       H  2.59050e-04  7.56142e-04  1.41172e-04
       O  1.65564e-04 -2.04921e-04  4.28241e-05
       H  4.56603e-04 -2.43068e-04  2.32262e-04
       H  1.11162e-06 -5.79996e-04  6.47436e-04
       H -3.96266e-04  2.21622e-04 -6.84830e-04
13
# CELL(abcABC):   56.30000    56.30000    56.30000    90.00000    90.00000    90.00000  Step:         300  Bead:       0 velocities{atomic_unit}  cell{angstrom}
       O -2.33606e-04 -1.74320e-05 -1.41178e-04
       H -1.20282e-04 -3.70644e-04  1.09284e-04
       H -2.96810e-05 -4.56989e-05 -1.11570e-04
       O -2.38845e-05  2.84982e-04 -5.28373e-05
       H  1.51717e-04 -2.59100e-04  4.07908e-04
       H  9.84777e-05  5.23787e-05  5.65263e-04
       O  2.26386e-06  3.83766e-05 -1.24104e-05
       H  5.77707e-04  6.57295e-05  4.28693e-04
       H  2.50973e-04  3.76905e-04  7.32593e-04
       O  1.71366e-04 -1.72808e-04  8.81516e-05
       H -1.37118e-04 -3.97196e-04  2.39049e-04
       H  2.55005e-04 -1.17166e-03 -1.94522e-04
       H  2.84350e-04 -3.63752e-04 -2.99294e-04
13
# CELL(abcABC):   56.30000    56.30000    56.30000    90.00000    90.00000    90.00000  Step:         310  Bead:       0 velocities{atomic_unit}  cell{angstrom}
       O -1.86234e-04 -5.27861e-05 -5.34429e-05
       H -1.71558e-04  1.34445e-04 -6.18367e-04
       H -3.30883e-04  4.11150e-04 -2.79883e-04
       O  2.85943e-05  1.81268e-04  8.13225e-06
       H  2.11743e-04  3.97475e-05  5.74921e-05
       H -4.83652e-04  1.26166e-03  8.63262e-05
       O  1.01015e-04  8.58375e-05  5.79033e-06
       H -2.67872e-04  1.49988e-04 -5.76410e-04
       H -6.41498e-04 -3.72751e-04  1.00302e-04
       O  1.35389e-04 -2.62446e-04  2.77687e-06
       H  2.40570e-04 -2.17226e-04  1.32935e-04
       H -4.62187e-05 -3.10876e-04  1.11097e-03
       H  2.39124e-04 -3.32199e-04  5.69877e-04
13
# CELL(abcABC):   56.30000    56.30000    56.30000    90.00000    90.00000    90.00000  Step:         320  Bead:       0 velocities{atomic_unit}  cell{angstrom}
       O -1.52895e-04  1.38884e-05 -8.91498e-05
       H -3.35175e-04 -6.32818e-04  1.42889e-07
       H -4.54227e-04  5.37567e-04 -1.49321e-04
       O  2.00187e-06  1.97927e-04 -3.19680e-05
       H  4.30149e-04  3.17738e-05  2.10467e-04
       H  8.11774e-05  5.59760e-04  9.47774e-04
       O  3.46764e-05  3.94360e-05  1.59254e-05
       H -3.54972e-04  2.93227e-04 -6.75191e-04
       H  4.17585e-04 -2.70867e-04 -5.15491e-04
       O  3.44584e-05 -2.53322e-04  1.05471e-04
       H  3.10112e-04 -2.78869e-04 -1.04566e-04
       H  1.01143e-03 -7.81553e-04 -2.70093e-04
       H  1.91701e-04  5.74637e-04  5.51859e-04
13
# CELL(abcABC):   56.30000    56.30000    56.30000    90.00000    90.00000    90.00000  Step:         330  Bead:       0 velocities{atomic_unit}  cell{angstrom}
       O -1.39038e-04  2.35175e-05 -8.66388e-05
       H -5.67992e-04 -1.64831e-04 -4.98916e-04
       H -4.35758e-04  4.91716e-04  6.51414e-05
       O  4.51726e-06  1.68862e-04  2.38449e-05
       H  7.13320e-04 -1.55511e-04  6.87668e-04
       H  7.55947e-05  7.46963e-04 -1.71285e-04
       O -2.60488e-05  2.61867e-05  1.29673e-05
       H  6.55776e-04 -2.61149e-04 -1.15541e-04
       H  8.70516e-04  7.62138e-04 -9.80078e-04
       O  9.03767e-05 -2.65126e-04  6.05688e-05
       H -1.15056e-04 -4.73409e-04 -1.02145e-04
       H  1.28991e-04 -5.53670e-04  7.28334e-04
       H -2.11189e-04  3.46813e-04  2.16306e-04
13
# CELL(abcABC):   56.30000    56.30000    56.30000    90.00000    90.00000    90.00000  Step:         340  Bead:       0 velocities{atomic_unit}  cell{angstrom}
       O -1.14490e-04  6.47993e-05 -1.05525e-04
       H -5.56124e-04  1.85025e-05 -7.23503e-05
       H -7.03666e-04  4.70780e-04 -2.96360e-04
       O  3.58439e-05  1.50398e-04  8.84202e-06
       H  8.51208e-04 -1.86446e-04  4.12670e-04
       H  7.36840e-05  7.53522e-04  2.96791e-04
       O -1.94636e-05  5.86092e-05 -2.47323e-05
       H  5.58686e-04  3.23653e-05  2.75124e-04
       H -1.46122e-04  2.67059e-04 -5.61845e-04
       O  7.13761e-05 -2.71622e-04  8.41027e-05
       H  2.90361e-04  8.16570e-05  3.94967e-04
       H -1.39013e-04 -9.77049e-04  1.81060e-04
       H  1.95337e-04 -4.95057e-04 -3.77796e-05
13
# CELL(abcABC):   56.30000    56.30000    56.30000    90.00000    90.00000    90.00000  Step:         350  Bead:       0 velocities{atomic_unit}  cell{angstrom}
       O -1.10153e-04  8.91121e-05 -1.48800e-04
       H -5.64225e-04  3.05693e-05  2.09559e-04
       H -4.98341e-04  7.69300e-04 -1.39311e-05
       O  1.15740e-04  7.40577e-05 -2.59978e-05
       H  5.19915e-04  3.55748e-04  4.78750e-04
       H -7.22949e-05  1.03638e-03  7.38273e-04
       O  1.03103e-05  1.25678e-04 -8.57674e-05
       H -7.31479e-04  1.87315e-04  5.45396e-04
       H -4.40941e-04 -1.10681e-03  1.45214e-04
       O  7.12250e-05 -2.46556e-04  1.65835e-04
       H -1.09915e-04 -5.58384e-04 -3.66480e-04
       H  1.56412e-04 -8.37817e-04 -1.27986e-04
       H  3.57937e-04 -5.47619e-04 -1.05106e-04
13
# CELL(abcABC):   56.30000    56.30000    56.30000    90.00000    90.00000    90.00000  Step:         360  Bead:       0 velocities{atomic_unit}  cell{angstrom}
       O -7.39195e-05  1.47409e-04 -1.06985e-04
       H -8.66811e-04  1.49912e-04 -3.89671e-04
       H -6.74672e-04  1.89957e-04 -8.79062e-05
       O  1.26791e-04  6.25108e-05  5.90809e-05
       H  8.02065e-04  4.89837e-05  2.87390e-04
       H -1.34344e-04  1.05048e-03 -3.14095e-04
       O  2.59541e-05  2.78585e-05 -9.13569e-05
       H -7.09666e-04 -4.44248e-05  6.44629e-04
       H -3.70238e-04  2.52130e-04  8.01009e-05
       O  2.26214e-05 -3.21551e-04  1.08733e-04
       H  5.98236e-04  4.50023e-05 -2.57281e-04
       H -8.31273e-05 -5.44572e-04  8.72352e-04
       H -1.71742e-04  1.82284e-04 -3.50932e-04
13
# CELL(abcABC):   56.30000    56.30000    56.30000    90.00000    90.00000    90.00000  Step:         370  Bead:       0 velocities{atomic_unit}  cell{angstrom}
       O -9.91094e-05  1.93062e-04 -1.50258e-04
       H -6.12573e-04 -3.76080e-04  2.72833e-04
       H -5.52449e-04  2.60683e-04  1.06193e-04
       O  1.01572e-04  6.40648e-05  9.78265e-07
       H  7.05222e-04  1.55763e-04  6.34957e-04
       H  6.42461e-04  5.30038e-04  5.84785e-04
       O -1.13651e-04  2.19441e-05 -8.21033e-05
       H  3.96130e-04 -1.74345e-04  1.10974e-04
       H  9.59650e-04  8.43684e-04  1.18917e-04
       O  2.00973e-05 -3.05345e-04  1.92392e-04
       H  1.11990e-04 -1.65276e-04 -1.95415e-04
       H  2.15494e-04 -8.58725e-04 -5.04354e-04
       H -4.20009e-04  2.01313e-04 -5.09973e-04
13