13
# CELL(abcABC):   56.30000    56.30000    56.30000    90.00000    90.00000    90.00000  Step:           0  Bead:       0 positions{angstrom}  cell{angstrom}
       O  1.07822e+00  2.29893e+00  2.61891e-01
       H  1.35274e+00  2.95352e+00 -3.93921e-01
       H  1.39443e+00  2.60453e+00  1.12190e+00
       O  1.45105e+00 -2.02156e+00 -4.65212e-02
       H  1.85428e+00 -2.50046e+00 -7.82775e-01
       H  1.59141e+00 -2.54947e+00  7.50145e-01
       O  2.23335e-02  6.89147e-02 -4.15705e-01
       H  4.46095e-01  9.31444e-01 -1.06679e-01
       H  5.69145e-01 -7.58536e-01 -2.27687e-01
       O -2.48599e+00 -1.78842e-01  2.68437e-02
       H -3.13139e+00 -2.01090e-01 -6.92125e-01
       H -2.98092e+00 -1.38271e-01  8.55314e-01
       H -9.59352e-01 -1.82065e-02 -1.97593e-01
13
# CELL(abcABC):   56.30000    56.30000    56.30000    90.00000    90.00000    90.00000  Step:          10  Bead:       0 positions{angstrom}  cell{angstrom}
       O  1.03694e+00  2.29787e+00  2.51327e-01
       H  1.33857e+00  2.92890e+00 -4.18267e-01
       H  1.36726e+00  2.60916e+00  1.09513e+00
       O  1.49235e+00 -1.99876e+00 -4.57969e-02
       H  1.86034e+00 -2.47698e+00 -8.17648e-01
       H  1.50022e+00 -2.54948e+00  7.45795e-01
       O  1.48672e-02  5.72975e-02 -4.07806e-01
       H  4.48577e-01  9.01976e-01 -5.54467e-02
       H  5.31083e-01 -7.97824e-01 -2.38027e-01
       O -2.47465e+00 -1.74430e-01  3.37111e-02
       H -3.07389e+00 -2.99175e-01 -6.97557e-01
       H -2.92453e+00 -9.99312e-02  8.88134e-01
       H -9.72912e-01 -1.23828e-01 -2.53755e-01
13
# CELL(abcABC):   56.30000    56.30000    56.30000    90.00000    90.00000    90.00000  Step:          20  Bead:       0 positions{angstrom}  cell{angstrom}
       O  9.95647e-01  2.29633e+00  2.40498e-01
       H  1.31700e+00  2.89136e+00 -4.47310e-01
       H  1.35008e+00  2.62304e+00  1.09557e+00
       O  1.53117e+00 -1.97264e+00 -4.68135e-02
       H  1.86513e+00 -2.47904e+00 -7.74430e-01
       H  1.44404e+00 -2.59490e+00  6.94530e-01
       O  7.58511e-03  3.43702e-02 -4.01602e-01
       H  3.90758e-01  8.88070e-01 -2.59798e-02
       H  5.75241e-01 -7.82687e-01 -2.59501e-01
       O -2.45469e+00 -1.70334e-01  3.99259e-02
       H -3.11643e+00 -4.04814e-01 -6.65749e-01
       H -2.93002e+00 -7.33043e-02  8.68453e-01
       H -9.83254e-01 -6.62338e-02 -2.46309e-01
13
# CELL(abcABC):   56.30000    56.30000    56.30000    90.00000    90.00000    90.00000  Step:          30  Bead:       0 positions{angstrom}  cell{angstrom}
       O  9.55584e-01  2.29558e+00  2.34878e-01
       H  1.29323e+00  2.85208e+00 -4.80835e-01
       H  1.31590e+00  2.62823e+00  1.04785e+00
       O  1.56754e+00 -1.94777e+00 -4.35638e-02
       H  1.90583e+00 -2.50393e+00 -7.92708e-01
       H  1.39708e+00 -2.61560e+00  6.35424e-01
       O  1.25000e-03  1.40116e-02 -3.96972e-01
       H  3.58815e-01  8.87744e-01 -5.65528e-02
       H  6.28836e-01 -7.85620e-01 -2.55837e-01
       O -2.44109e+00 -1.69442e-01  3.95508e-02
       H -3.10237e+00 -4.74034e-01 -5.54522e-01
       H -2.94715e+00 -4.28463e-02  8.59811e-01
       H -9.94276e-01 -1.83859e-02 -1.93281e-01
13
# CELL(abcABC):   56.30000    56.30000    56.30000    90.00000    90.00000    90.00000  Step:          40  Bead:       0 positions{angstrom}  cell{angstrom}
       O  9.14394e-01  2.29427e+00  2.26726e-01
       H  1.26768e+00  2.81802e+00 -5.07924e-01
       H  1.30449e+00  2.65812e+00  1.04889e+00
       O  1.60570e+00 -1.93402e+00 -4.41514e-02
       H  1.93502e+00 -2.41638e+00 -7.95904e-01
       H  1.34329e+00 -2.58376e+00  6.24034e-01
       O -2.22684e-03  1.50019e-03 -3.92405e-01
       H  4.11558e-01  8.90925e-01 -1.31611e-01
       H  5.88678e-01 -7.86872e-01 -2.27404e-01
       O -2.43648e+00 -1.68171e-01  4.66413e-02
       H -3.09798e+00 -5.72841e-01 -5.75726e-01
       H -2.89134e+00  1.66249e-02  8.81687e-01
       H -9.75442e-01 -1.15144e-01 -1.52995e-01
13
# CELL(abcABC):   56.30000    56.30000    56.30000    90.00000    90.00000    90.00000  Step:          50  Bead:       0 positions{angstrom}  cell{angstrom}
       O  8.75609e-01  2.29511e+00  2.18013e-01
       H  1.23789e+00  2.80058e+00 -5.17453e-01
       H  1.27284e+00  2.65682e+00  1.01569e+00
       O  1.63955e+00 -1.91952e+00 -4.07060e-02
       H  1.99101e+00 -2.36130e+00 -8.34246e-01
       H  1.33534e+00 -2.57407e+00  6.07090e-01
       O -1.67790e-03 -7.63909e-03 -3.89855e-01
       H  4.29197e-01  8.73623e-01 -1.69925e-01
       H  5.98411e-01 -8.15491e-01 -2.11227e-01
       O -2.44010e+00 -1.70030e-01  5.30812e-02
       H -3.03048e+00 -6.27135e-01 -5.39253e-01
       H -2.84537e+00  6.82062e-02  8.85735e-01
       H -9.75741e-01 -1.81615e-01 -1.32456e-01
13
# CELL(abcABC):   56.30000    56.30000    56.30000    90.00000    90.00000    90.00000  Step:          60  Bead:       0 positions{angstrom}  cell{angstrom}
       O  8.38340e-01  2.29674e+00  2.05329e-01
       H  1.20760e+00  2.81669e+00 -5.30578e-01
       H  1.24272e+00  2.63954e+00  1.01045e+00
       O  1.66870e+00 -1.90237e+00 -3.59375e-02
       H  2.04120e+00 -2.34282e+00 -8.22567e-01
       H  1.40455e+00 -2.62146e+00  5.47974e-01
       O  3.74030e-03 -2.79706e-02 -3.89313e-01
       H  3.69122e-01  8.78714e-01 -1.18087e-01
       H  6.51191e-01 -7.80432e-01 -2.42966e-01
       O -2.43585e+00 -1.71928e-01  6.01364e-02
       H -3.05688e+00 -6.81354e-01 -4.77164e-01
       H -2.89736e+00  9.23840e-02  8.83815e-01
       H -9.73528e-01 -1.06949e-01 -1.41868e-01
13
# CELL(abcABC):   56.30000    56.30000    56.30000    90.00000    90.00000    90.00000  Step:          70  Bead:       0 positions{angstrom}  cell{angstrom}
       O  8.03086e-01  2.30074e+00  1.89707e-01
       H  1.16054e+00  2.83583e+00 -5.23659e-01
       H  1.21090e+00  2.61257e+00  1.02184e+00
       O  1.69689e+00 -1.88930e+00 -3.34341e-02
       H  2.10196e+00 -2.29303e+00 -7.99759e-01
       H  1.49468e+00 -2.66954e+00  5.18755e-01
       O  1.24579e-02 -3.81095e-02 -3.90506e-01
       H  3.24487e-01  8.61740e-01 -6.84931e-02
       H  6.82416e-01 -8.02230e-01 -2.45848e-01
       O -2.43621e+00 -1.73336e-01  7.18807e-02
       H -3.08940e+00 -7.30422e-01 -4.13513e-01
       H -2.94073e+00  1.01434e-01  8.34742e-01
       H -9.76832e-01 -1.09519e-01 -1.74315e-01
13
# CELL(abcABC):   56.30000    56.30000    56.30000    90.00000    90.00000    90.00000  Step:          80  Bead:       0 positions{angstrom}  cell{angstrom}
       O  7.68998e-01  2.30529e+00  1.78520e-01
       H  1.11746e+00  2.87455e+00 -5.25934e-01
       H  1.16527e+00  2.58836e+00  9.96535e-01
       O  1.72391e+00 -1.88497e+00 -3.03583e-02
       H  2.20723e+00 -2.19256e+00 -8.37490e-01
       H  1.57727e+00 -2.65038e+00  5.34249e-01
       O  2.24736e-02 -4.18473e-02 -3.92376e-01
       H  3.64086e-01  8.57813e-01 -7.04468e-02
       H  6.23454e-01 -8.25318e-01 -2.09424e-01
       O -2.44942e+00 -1.80321e-01  8.28148e-02
       H -3.03218e+00 -7.51325e-01 -3.91561e-01
       H -2.94166e+00  1.67619e-01  8.51348e-01
       H -9.50028e-01 -2.32801e-01 -2.12648e-01
13
# CELL(abcABC):   56.30000    56.30000    56.30000    90.00000    90.00000    90.00000  Step:          90  Bead:       0 positions{angstrom}  cell{angstrom}
       O  7.34851e-01  2.30861e+00  1.66243e-01
       H  1.06517e+00  2.90886e+00 -5.19278e-01
       H  1.14337e+00  2.59788e+00  1.01033e+00
       O  1.75167e+00 -1.88239e+00 -3.20882e-02
       H  2.28129e+00 -2.08437e+00 -7.91280e-01
       H  1.68933e+00 -2.65095e+00  5.50473e-01
       O  3.25821e-02 -4.98287e-02 -3.96254e-01
       H  3.81179e-01  8.66917e-01 -1.11056e-01
       H  6.31879e-01 -8.34399e-01 -1.71950e-01
       O -2.46341e+00 -1.87286e-01  9.66599e-02
       H -3.04896e+00 -8.05370e-01 -4.07048e-01
       H -2.91537e+00  2.24185e-01  8.42730e-01
       H -9.33998e-01 -2.43154e-01 -2.04171e-01
13
# CELL(abcABC):   56.30000    56.30000    56.30000    90.00000    90.00000    90.00000  Step:         100  Bead:       0 positions{angstrom}  cell{angstrom}
       O  7.04044e-01  2.31374e+00  1.57968e-01
       H  1.00002e+00  2.93288e+00 -5.14610e-01
       H  1.09795e+00  2.60008e+00  9.83311e-01
       O  1.77438e+00 -1.87673e+00 -2.91963e-02
       H  2.39670e+00 -2.04004e+00 -7.70997e-01
       H  1.84674e+00 -2.66957e+00  5.34028e-01
       O  4.41934e-02 -6.39738e-02 -4.00782e-01
       H  3.48112e-01  8.65136e-01 -1.71660e-01
       H  6.97805e-01 -8.00270e-01 -1.63151e-01
       O -2.47352e+00 -1.99470e-01  1.04661e-01
       H -3.09873e+00 -7.74270e-01 -3.25357e-01
       H -2.94660e+00  2.36458e-01  8.13085e-01
       H -9.43432e-01 -1.24141e-01 -1.55568e-01
13
# CELL(abcABC):   56.30000    56.30000    56.30000    90.00000    90.00000    90.00000  Step:         110  Bead:       0 positions{angstrom}  cell{angstrom}
       O  6.73903e-01  2.31963e+00  1.49464e-01
       H  9.29634e-01  2.97272e+00 -5.31892e-01
       H  1.06119e+00  2.61183e+00  9.87949e-01
       O  1.80306e+00 -1.87648e+00 -2.84635e-02
       H  2.47227e+00 -1.96428e+00 -7.20923e-01
       H  1.96525e+00 -2.63911e+00  5.26225e-01
       O  4.99669e-02 -7.24077e-02 -4.05844e-01
       H  3.80834e-01  8.76985e-01 -2.31974e-01
       H  7.05228e-01 -7.90023e-01 -1.46287e-01
       O -2.48116e+00 -2.10706e-01  1.14112e-01
       H -3.16728e+00 -7.75506e-01 -2.85497e-01
       H -2.99081e+00  2.70265e-01  8.09555e-01
       H -9.04964e-01 -1.21723e-01 -1.24404e-01
13
# CELL(abcABC):   56.30000    56.30000    56.30000    90.00000    90.00000    90.00000  Step:         120  Bead:       0 positions{angstrom}  cell{angstrom}
       O  6.45745e-01  2.32824e+00  1.38265e-01
       H  8.46392e-01  2.99828e+00 -5.14095e-01
       H  1.02330e+00  2.62597e+00  9.83789e-01
       O  1.83758e+00 -1.87819e+00 -3.02065e-02
       H  2.52581e+00 -1.85427e+00 -7.00024e-01
       H  2.02805e+00 -2.61131e+00  5.89926e-01
       O  5.69310e-02 -7.08012e-02 -4.12413e-01
       H  4.24702e-01  8.50955e-01 -2.61460e-01
       H  6.63639e-01 -8.25693e-01 -1.23660e-01
       O -2.49800e+00 -2.19939e-01  1.29790e-01
       H -3.15986e+00 -7.94059e-01 -2.96913e-01
       H -2.94675e+00  3.02656e-01  7.77946e-01
       H -8.98165e-01 -2.39933e-01 -1.11897e-01
13
# CELL(abcABC):   56.30000    56.30000    56.30000    90.00000    90.00000    90.00000  Step:         130  Bead:       0 positions{angstrom}  cell{angstrom}
       O  6.19169e-01  2.33618e+00  1.28131e-01
       H  7.68739e-01  3.05641e+00 -5.13758e-01
       H  9.82318e-01  2.63913e+00  9.60124e-01
       O  1.87042e+00 -1.88044e+00 -2.92576e-02
       H  2.60053e+00 -1.77568e+00 -6.75256e-01
       H  2.09291e+00 -2.54753e+00  6.17167e-01
       O  6.09753e-02 -8.14920e-02 -4.17824e-01
       H  3.93280e-01  8.62665e-01 -2.03740e-01
       H  6.74262e-01 -8.25670e-01 -1.53866e-01
       O -2.51057e+00 -2.33115e-01  1.42729e-01
       H -3.13699e+00 -7.92876e-01 -2.97819e-01
       H -2.94530e+00  3.63808e-01  7.89871e-01
       H -8.86818e-01 -2.39271e-01 -1.52812e-01
13
# CELL(abcABC):   56.30000    56.30000    56.30000    90.00000    90.00000    90.00000  Step:         140  Bead:       0 positions{angstrom}  cell{angstrom}
       O  5.93958e-01  2.34591e+00  1.16014e-01
       H  6.76140e-01  3.07704e+00 -5.08619e-01
       H  9.53205e-01  2.66138e+00  9.69335e-01
       O  1.90132e+00 -1.87622e+00 -3.20579e-02
       H  2.66167e+00 -1.76454e+00 -5.94175e-01
       H  2.19081e+00 -2.50984e+00  6.45338e-01
       O  6.44157e-02 -9.31390e-02 -4.22423e-01
       H  3.09319e-01  8.39321e-01 -1.37300e-01
       H  7.41438e-01 -8.23395e-01 -1.94016e-01
       O -2.51197e+00 -2.42853e-01  1.58714e-01
       H -3.20009e+00 -7.90138e-01 -2.88738e-01
       H -2.98727e+00  3.55611e-01  7.43293e-01
       H -9.24937e-01 -1.86333e-01 -2.09173e-01
13
# CELL(abcABC):   56.30000    56.30000    56.30000    90.00000    90.00000    90.00000  Step:         150  Bead:       0 positions{angstrom}  cell{angstrom}
       O  5.70285e-01  2.35656e+00  1.09677e-01
       H  5.81306e-01  3.08226e+00 -5.21525e-01
       H  9.09005e-01  2.68717e+00  9.42050e-01
       O  1.93323e+00 -1.87141e+00 -3.37577e-02
       H  2.74851e+00 -1.74835e+00 -5.68394e-01
       H  2.22617e+00 -2.45337e+00  6.90538e-01
       O  6.17641e-02 -1.00772e-01 -4.25673e-01
       H  3.08876e-01  8.32565e-01 -1.28650e-01
       H  7.25723e-01 -8.10062e-01 -2.03006e-01
       O -2.51410e+00 -2.55216e-01  1.71638e-01
       H -3.20096e+00 -7.55500e-01 -2.60022e-01
       H -3.02405e+00  3.56497e-01  7.12078e-01
       H -9.09070e-01 -2.60044e-01 -2.63089e-01
13
# CELL(abcABC):   56.30000    56.30000    56.30000    90.00000    90.00000    90.00000  Step:         160  Bead:       0 positions{angstrom}  cell{angstrom}
       O  5.46324e-01  2.36381e+00  1.05426e-01
       H  4.86355e-01  3.08734e+00 -5.51138e-01
       H  8.76997e-01  2.74820e+00  9.32995e-01
       O  1.97207e+00 -1.86598e+00 -3.58370e-02
       H  2.76882e+00 -1.72829e+00 -5.51595e-01
       H  2.18949e+00 -2.38016e+00  7.37829e-01
       O  5.64965e-02 -1.03767e-01 -4.30257e-01
       H  3.30365e-01  8.41702e-01 -1.75457e-01
       H  7.10608e-01 -8.39909e-01 -1.80958e-01
       O -2.51804e+00 -2.67558e-01  1.84245e-01
       H -3.18983e+00 -7.90092e-01 -2.92873e-01
       H -3.00104e+00  4.06228e-01  7.19783e-01
       H -8.96175e-01 -3.71791e-01 -2.65473e-01
13
# CELL(abcABC):   56.30000    56.30000    56.30000    90.00000    90.00000    90.00000  Step:         170  Bead:       0 positions{angstrom}  cell{angstrom}
       O  5.22507e-01  2.37120e+00  1.01193e-01
       H  4.01493e-01  3.05251e+00 -5.53776e-01
       H  8.40885e-01  2.81159e+00  9.02852e-01
       O  2.00375e+00 -1.85560e+00 -3.85451e-02
       H  2.82183e+00 -1.73520e+00 -5.35804e-01
       H  2.18450e+00 -2.33196e+00  8.02631e-01
       O  5.42197e-02 -1.16905e-01 -4.35336e-01
       H  2.79524e-01  8.38894e-01 -2.19920e-01
       H  7.38576e-01 -8.02153e-01 -1.93645e-01
       O -2.52258e+00 -2.80801e-01  1.95481e-01
       H -3.17196e+00 -7.97725e-01 -2.98658e-01
       H -2.94068e+00  3.99291e-01  6.88262e-01
       H -8.95280e-01 -3.25391e-01 -2.06376e-01
13
# CELL(abcABC):   56.30000    56.30000    56.30000    90.00000    90.00000    90.00000  Step:         180  Bead:       0 positions{angstrom}  cell{angstrom}
       O  4.98298e-01  2.37657e+00  9.81027e-02
       H  3.16584e-01  3.04758e+00 -5.93793e-01
       H  8.06493e-01  2.85367e+00  8.73104e-01
       O  2.02789e+00 -1.84141e+00 -3.77776e-02
       H  2.89293e+00 -1.78169e+00 -4.87763e-01
       H  2.22321e+00 -2.26671e+00  7.90932e-01
       O  4.85367e-02 -1.30585e-01 -4.41969e-01
       H  2.58409e-01  8.36582e-01 -2.31847e-01
       H  8.14293e-01 -7.71338e-01 -2.13436e-01
       O -2.51486e+00 -3.00257e-01  2.01620e-01
       H -3.20055e+00 -7.72544e-01 -2.76862e-01
       H -2.97365e+00  4.34119e-01  6.89175e-01
       H -9.09983e-01 -2.54147e-01 -1.19249e-01
13
# CELL(abcABC):   56.30000    56.30000    56.30000    90.00000    90.00000    90.00000  Step:         190  Bead:       0 positions{angstrom}  cell{angstrom}
       O  4.71578e-01  2.38316e+00  8.98711e-02
       H  2.51278e-01  3.01628e+00 -5.97006e-01
       H  7.82500e-01  2.88830e+00  8.61476e-01
       O  2.05292e+00 -1.82250e+00 -3.82125e-02
       H  2.90943e+00 -1.81671e+00 -4.65669e-01
       H  2.24071e+00 -2.23470e+00  8.30536e-01
       O  4.10279e-02 -1.35132e-01 -4.45369e-01
       H  3.13663e-01  8.07169e-01 -2.45407e-01
       H  7.85597e-01 -7.61898e-01 -2.29003e-01
       O -2.50537e+00 -3.13177e-01  2.11562e-01
       H -3.22386e+00 -7.68216e-01 -2.72887e-01
       H -2.96939e+00  3.92217e-01  6.53581e-01
       H -8.66919e-01 -3.24593e-01 -7.16232e-02
13
# CELL(abcABC):   56.30000    56.30000    56.30000    90.00000    90.00000    90.00000  Step:         200  Bead:       0 positions{angstrom}  cell{angstrom}
       O  4.44191e-01  2.38754e+00  8.14626e-02
       H  1.96649e-01  3.01738e+00 -6.08417e-01
       H  7.58725e-01  2.90014e+00  8.30317e-01
       O  2.07758e+00 -1.80298e+00 -3.13896e-02
       H  2.92519e+00 -1.82867e+00 -5.16543e-01
       H  2.20803e+00 -2.19556e+00  8.42102e-01
       O  3.76581e-02 -1.36283e-01 -4.47437e-01
       H  3.32731e-01  8.11232e-01 -2.32131e-01
       H  7.53783e-01 -8.28557e-01 -2.53117e-01
       O -2.49870e+00 -3.27417e-01  2.19529e-01
       H -3.16483e+00 -7.99747e-01 -2.80312e-01
       H -2.94529e+00  4.00761e-01  6.78089e-01
       H -8.50971e-01 -4.14047e-01 -6.44645e-02
13
# CELL(abcABC):   56.30000    56.30000    56.30000    90.00000    90.00000    90.00000  Step:         210  Bead:       0 positions{angstrom}  cell{angstrom}
       O  4.15328e-01  2.38892e+00  7.01156e-02
       H  1.52768e-01  3.02944e+00 -6.19137e-01
       H  7.52027e-01  2.90704e+00  8.16764e-01
       O  2.09740e+00 -1.77970e+00 -2.39204e-02
       H  2.90220e+00 -1.85132e+00 -5.40494e-01
       H  2.22350e+00 -2.17968e+00  8.33751e-01
       O  4.12950e-02 -1.46187e-01 -4.46244e-01
       H  2.65651e-01  7.92559e-01 -1.76972e-01
       H  7.59444e-01 -8.30763e-01 -3.21499e-01
       O -2.48746e+00 -3.41512e-01  2.28630e-01
       H -3.12815e+00 -8.45496e-01 -2.96609e-01
       H -2.92805e+00  3.93058e-01  7.06762e-01
       H -8.78170e-01 -3.62392e-01 -1.08884e-01
13
# CELL(abcABC):   56.30000    56.30000    56.30000    90.00000    90.00000    90.00000  Step:         220  Bead:       0 positions{angstrom}  cell{angstrom}
       O  3.84702e-01  2.39024e+00  5.72950e-02
       H  1.29267e-01  3.01973e+00 -6.08812e-01
       H  7.49407e-01  2.89409e+00  7.97477e-01
       O  2.10783e+00 -1.75081e+00 -1.83116e-02
       H  2.90276e+00 -1.89569e+00 -5.53572e-01
       H  2.29772e+00 -2.20273e+00  8.39164e-01
       O  4.18093e-02 -1.55264e-01 -4.43976e-01
       H  2.51665e-01  7.83282e-01 -1.37578e-01
       H  8.08005e-01 -8.10982e-01 -3.45468e-01
       O -2.46891e+00 -3.55461e-01  2.38314e-01
       H -3.12381e+00 -8.46581e-01 -2.77955e-01
       H -2.94427e+00  3.18936e-01  6.92542e-01
       H -9.31386e-01 -3.21816e-01 -1.87373e-01
13
# CELL(abcABC):   56.30000    56.30000    56.30000    90.00000    90.00000    90.00000  Step:         230  Bead:       0 positions{angstrom}  cell{angstrom}
       O  3.54110e-01  2.38745e+00  4.77964e-02
       H  1.02411e-01  3.04313e+00 -6.40059e-01
       H  7.49968e-01  2.87653e+00  7.77331e-01
       O  2.11954e+00 -1.72317e+00 -8.97265e-03
       H  2.86885e+00 -1.92294e+00 -5.93915e-01
       H  2.32603e+00 -2.18576e+00  7.90396e-01
       O  4.02930e-02 -1.54955e-01 -4.41249e-01
       H  2.92799e-01  7.69300e-01 -1.66382e-01
       H  7.78176e-01 -8.12985e-01 -2.87920e-01
       O -2.44580e+00 -3.73889e-01  2.43294e-01
       H -3.11348e+00 -8.57228e-01 -2.59774e-01
       H -2.99085e+00  3.07019e-01  7.31017e-01
       H -9.17552e-01 -3.85660e-01 -2.52054e-01
13
# CELL(abcABC):   56.30000    56.30000    56.30000    90.00000    90.00000    90.00000  Step:         240  Bead:       0 positions{angstrom}  cell{angstrom}
       O  3.22260e-01  2.38418e+00  3.65040e-02
       H  1.02994e-01  3.02912e+00 -6.32936e-01
       H  7.55910e-01  2.86658e+00  7.57174e-01
       O  2.13207e+00 -1.69434e+00 -2.89494e-03
       H  2.79105e+00 -1.91727e+00 -6.67334e-01
       H  2.32994e+00 -2.19361e+00  8.21077e-01
       O  4.49272e-02 -1.54336e-01 -4.42378e-01
       H  2.78188e-01  8.09473e-01 -2.18338e-01
       H  7.28176e-01 -8.53213e-01 -2.02524e-01
       O -2.43112e+00 -3.89788e-01  2.48173e-01
       H -3.07928e+00 -9.06204e-01 -2.56554e-01
       H -2.91188e+00  2.49351e-01  7.48270e-01
       H -8.98678e-01 -4.15975e-01 -2.26963e-01
13
# CELL(abcABC):   56.30000    56.30000    56.30000    90.00000    90.00000    90.00000  Step:         250  Bead:       0 positions{angstrom}  cell{angstrom}
       O  2.91107e-01  2.37789e+00  2.74865e-02
       H  1.00792e-01  3.03717e+00 -6.60735e-01
       H  7.62648e-01  2.84152e+00  7.30548e-01
       O  2.13959e+00 -1.66450e+00  8.23751e-03
       H  2.71183e+00 -1.92800e+00 -7.30449e-01
       H  2.35676e+00 -2.19167e+00  7.80522e-01
       O  5.23767e-02 -1.58308e-01 -4.44897e-01
       H  2.24709e-01  8.13211e-01 -2.62553e-01
       H  7.48224e-01 -8.18679e-01 -1.51356e-01
       O -2.41376e+00 -4.12711e-01  2.47074e-01
       H -3.05690e+00 -9.46690e-01 -2.33533e-01
       H -2.86492e+00  2.46541e-01  8.11571e-01
       H -9.05453e-01 -3.32032e-01 -1.38266e-01
13
# CELL(abcABC):   56.30000    56.30000    56.30000    90.00000    90.00000    90.00000  Step:         260  Bead:       0 positions{angstrom}  cell{angstrom}
       O  2.58817e-01  2.37177e+00  1.69949e-02
       H  1.09130e-01  3.03334e+00 -6.80826e-01
       H  7.75448e-01  2.80760e+00  7.07836e-01
       O  2.14222e+00 -1.63150e+00  1.88136e-02
       H  2.62290e+00 -1.95288e+00 -7.55968e-01
       H  2.41981e+00 -2.21501e+00  7.34182e-01
       O  5.05037e-02 -1.61733e-01 -4.45777e-01
       H  2.65027e-01  8.17477e-01 -2.95841e-01
       H  8.25148e-01 -7.33570e-01 -1.27570e-01
       O -2.39111e+00 -4.34480e-01  2.46684e-01
       H -3.07278e+00 -9.60646e-01 -1.87513e-01
       H -2.84719e+00  1.88449e-01  8.41596e-01
       H -8.78768e-01 -2.90126e-01 -7.13360e-02
13
# CELL(abcABC):   56.30000    56.30000    56.30000    90.00000    90.00000    90.00000  Step:         270  Bead:       0 positions{angstrom}  cell{angstrom}
       O  2.26949e-01  2.36629e+00  5.16647e-03
       H  1.22589e-01  3.01776e+00 -6.85678e-01
       H  7.88889e-01  2.77460e+00  6.81980e-01
       O  2.14537e+00 -1.59965e+00  2.89630e-02
       H  2.51494e+00 -1.94982e+00 -7.96103e-01
       H  2.46514e+00 -2.22332e+00  7.20033e-01
       O  5.41771e-02 -1.55004e-01 -4.43493e-01
       H  2.99961e-01  8.12422e-01 -3.52084e-01
       H  8.27823e-01 -7.11582e-01 -1.29122e-01
       O -2.36861e+00 -4.53485e-01  2.50030e-01
       H -3.07519e+00 -9.83669e-01 -1.55503e-01
       H -2.82997e+00  1.09744e-01  8.58583e-01
       H -8.55175e-01 -3.75225e-01 -4.02705e-02
13
# CELL(abcABC):   56.30000    56.30000    56.30000    90.00000    90.00000    90.00000  Step:         280  Bead:       0 positions{angstrom}  cell{angstrom}
       O  1.97757e-01  2.35968e+00 -5.54473e-03
       H  1.28402e-01  3.03412e+00 -7.20627e-01
       H  7.94224e-01  2.74094e+00  6.51355e-01
       O  2.15147e+00 -1.57273e+00  3.86429e-02
       H  2.39886e+00 -1.92119e+00 -8.31810e-01
       H  2.46358e+00 -2.16691e+00  7.03230e-01
       O  6.45885e-02 -1.49717e-01 -4.39425e-01
       H  2.25322e-01  8.51317e-01 -3.69498e-01
       H  8.07117e-01 -7.68349e-01 -1.45849e-01
       O -2.35022e+00 -4.74623e-01  2.53676e-01
       H -3.01761e+00 -1.03316e+00 -1.57266e-01
       H -2.80644e+00  8.44269e-02  9.40754e-01
       H -8.25085e-01 -4.20986e-01 -7.45279e-02
13
# CELL(abcABC):   56.30000    56.30000    56.30000    90.00000    90.00000    90.00000  Step:         290  Bead:       0 positions{angstrom}  cell{angstrom}
       O  1.70192e-01  2.35687e+00 -2.12518e-02
       H  1.24039e-01  3.00751e+00 -7.15292e-01
       H  7.97879e-01  2.69988e+00  6.32112e-01
       O  2.15221e+00 -1.54106e+00  4.08499e-02
       H  2.33544e+00 -1.92647e+00 -8.26480e-01
       H  2.48546e+00 -2.16402e+00  7.32367e-01
       O  7.73004e-02 -1.49624e-01 -4.37102e-01
       H  1.49111e-01  8.59107e-01 -3.05988e-01
       H  8.37983e-01 -7.55540e-01 -1.48961e-01
       O -2.33491e+00 -4.92712e-01  2.63352e-01
       H -2.96837e+00 -1.08676e+00 -1.59137e-01
       H -2.74668e+00 -8.76940e-03  9.53103e-01
       H -8.65542e-01 -3.97154e-01 -1.42142e-01
13
# CELL(abcABC):   56.30000    56.30000    56.30000    90.00000    90.00000    90.00000  Step:         300  Bead:       0 positions{angstrom}  cell{angstrom}
       O  1.44468e-01  2.35272e+00 -3.43220e-02
       H  1.06434e-01  3.01337e+00 -7.53681e-01
       H  7.91601e-01  2.66667e+00  6.15149e-01
       O  2.15112e+00 -1.51128e+00  4.19816e-02
       H  2.33806e+00 -1.96750e+00 -7.92108e-01
       H  2.47423e+00 -2.11504e+00  7.07098e-01
       O  8.16303e-02 -1.48206e-01 -4.36777e-01
       H  1.81948e-01  8.32764e-01 -2.31106e-01
       H  8.71189e-01 -6.75928e-01 -9.67036e-02
       O -2.31393e+00 -5.15012e-01  2.67563e-01
       H -2.95648e+00 -1.12404e+00 -1.33623e-01
       H -2.76643e+00 -7.53624e-02  1.02709e+00
       H -8.67351e-01 -4.02547e-01 -2.05013e-01
13
# CELL(abcABC):   56.30000    56.30000    56.30000    90.00000    90.00000    90.00000  Step:         310  Bead:       0 positions{angstrom}  cell{angstrom}
       O  1.21607e-01  2.34948e+00 -4.53165e-02
       H  9.28767e-02  2.99143e+00 -7.68537e-01
       H  7.66782e-01  2.68583e+00  5.86508e-01
       O  2.15087e+00 -1.48480e+00  3.82700e-02
       H  2.35952e+00 -1.98084e+00 -7.71310e-01
       H  2.45902e+00 -2.05592e+00  7.63555e-01
       O  8.67774e-02 -1.40787e-01 -4.37701e-01
       H  2.07321e-01  8.52314e-01 -2.39423e-01
       H  8.47875e-01 -6.83134e-01 -4.04966e-02
       O -2.29836e+00 -5.38547e-01  2.73488e-01
       H -2.94070e+00 -1.14282e+00 -1.00089e-01
       H -2.74409e+00 -1.74204e-01  1.04806e+00
       H -8.37213e-01 -4.53355e-01 -1.87118e-01
13
# CELL(abcABC):   56.30000    56.30000    56.30000    90.00000    90.00000    90.00000  Step:         320  Bead:       0 positions{angstrom}  cell{angstrom}
       O  1.02554e-01  2.34704e+00 -5.37525e-02
       H  6.68624e-02  2.95803e+00 -7.96228e-01
       H  7.33430e-01  2.74844e+00  5.71968e-01
       O  2.15304e+00 -1.46479e+00  3.58500e-02
       H  2.38825e+00 -1.96456e+00 -7.50962e-01
       H  2.43557e+00 -1.95446e+00  8.31769e-01
       O  9.61972e-02 -1.33515e-01 -4.36074e-01
       H  1.55921e-01  8.75225e-01 -3.19853e-01
       H  8.14891e-01 -7.26360e-01 -6.91997e-02
       O -2.28862e+00 -5.65517e-01  2.80627e-01
       H -2.92896e+00 -1.19157e+00 -1.15161e-01
       H -2.68128e+00 -2.33440e-01  1.08882e+00
       H -8.09573e-01 -4.38293e-01 -1.16829e-01
13
# CELL(abcABC):   56.30000    56.30000    56.30000    90.00000    90.00000    90.00000  Step:         330  Bead:       0 positions{angstrom}  cell{angstrom}
       O  8.75816e-02  2.34855e+00 -6.10296e-02
       H  1.38101e-02  2.92948e+00 -8.49382e-01
       H  6.73074e-01  2.79544e+00  5.58108e-01
       O  2.15344e+00 -1.44503e+00  3.84829e-02
       H  2.45786e+00 -1.98348e+00 -7.13976e-01
       H  2.43593e+00 -1.86788e+00  8.40341e-01
       O  9.52622e-02 -1.30565e-01 -4.34472e-01
       H  1.72818e-01  8.83088e-01 -3.63406e-01
       H  9.10782e-01 -7.02050e-01 -1.52670e-01
       O -2.28255e+00 -5.96626e-01  2.86180e-01
       H -2.89364e+00 -1.21103e+00 -1.15784e-01
       H -2.63232e+00 -2.86873e-01  1.15740e+00
       H -8.13426e-01 -3.74323e-01 -7.61703e-02
13
# CELL(abcABC):   56.30000    56.30000    56.30000    90.00000    90.00000    90.00000  Step:         340  Bead:       0 positions{angstrom}  cell{angstrom}
       O  7.28950e-02  2.35458e+00 -7.41983e-02
       H -4.41911e-02  2.89714e+00 -8.48270e-01
       H  6.18163e-01  2.85253e+00  5.54051e-01
       O  2.15426e+00 -1.42614e+00  3.66374e-02
       H  2.54100e+00 -1.99732e+00 -6.39882e-01
       H  2.46421e+00 -1.81343e+00  8.92441e-01
       O  9.30255e-02 -1.26399e-01 -4.34552e-01
       H  2.56144e-01  8.55588e-01 -3.52886e-01
       H  9.45509e-01 -6.19213e-01 -2.48018e-01
       O -2.27398e+00 -6.23771e-01  2.98252e-01
       H -2.90179e+00 -1.24523e+00 -1.03414e-01
       H -2.61384e+00 -3.93393e-01  1.14561e+00
       H -8.20740e-01 -3.85013e-01 -6.71974e-02
13
# CELL(abcABC):   56.30000    56.30000    56.30000    90.00000    90.00000    90.00000  Step:         350  Bead:       0 positions{angstrom}  cell{angstrom}
       O  6.09793e-02  2.36131e+00 -8.61591e-02
       H -1.10347e-01  2.92609e+00 -8.70517e-01
       H  5.51625e-01  2.92341e+00  5.35016e-01
       O  2.16374e+00 -1.41508e+00  3.86933e-02
       H  2.61694e+00 -1.98824e+00 -5.92683e-01
       H  2.44662e+00 -1.69515e+00  9.02215e-01
       O  9.14666e-02 -1.15565e-01 -4.40928e-01
       H  2.46671e-01  8.80481e-01 -3.07049e-01
       H  9.16536e-01 -6.85549e-01 -2.63888e-01
       O -2.26419e+00 -6.52642e-01  3.08169e-01
       H -2.89408e+00 -1.27303e+00 -1.01563e-01
       H -2.64015e+00 -4.80097e-01  1.20828e+00
       H -7.81279e-01 -4.52252e-01 -7.63500e-02
13
# CELL(abcABC):   56.30000    56.30000    56.30000    90.00000    90.00000    90.00000  Step:         360  Bead:       0 positions{angstrom}  cell{angstrom}
       O  5.11319e-02  2.37565e+00 -1.01042e-01
       H -1.82455e-01  2.92217e+00 -8.56959e-01
       H  4.80088e-01  2.96945e+00  5.18897e-01
       O  2.17666e+00 -1.40711e+00  3.88677e-02
       H  2.69351e+00 -1.97099e+00 -5.64243e-01
       H  2.43986e+00 -1.58361e+00  9.62759e-01
       O  9.52215e-02 -1.06194e-01 -4.51008e-01
       H  1.48971e-01  8.83634e-01 -2.39123e-01
       H  8.54790e-01 -7.45239e-01 -2.48572e-01
       O -2.26148e+00 -6.84323e-01  3.25389e-01
       H -2.84833e+00 -1.28459e+00 -1.25903e-01
       H -2.61619e+00 -5.61748e-01  1.20477e+00
       H -7.69054e-01 -4.73559e-01 -9.80330e-02
13
# CELL(abcABC):   56.30000    56.30000    56.30000    90.00000    90.00000    90.00000  Step:         370  Bead:       0 positions{angstrom}  cell{angstrom}
       O  4.11759e-02  2.39361e+00 -1.15994e-01
       H -2.68282e-01  2.90963e+00 -8.72193e-01
       H  4.25297e-01  3.00520e+00  5.40979e-01
       O  2.19002e+00 -1.40115e+00  4.15788e-02
       H  2.76356e+00 -1.94640e+00 -4.93639e-01
       H  2.46637e+00 -1.49792e+00  9.64948e-01
       O  9.03197e-02 -1.04989e-01 -4.60636e-01
       H  1.34097e-01  8.73995e-01 -1.90033e-01
       H  8.96070e-01 -6.71051e-01 -2.37392e-01
       O -2.25747e+00 -7.17022e-01  3.43103e-01
       H -2.83565e+00 -1.32137e+00 -1.80268e-01
       H -2.61043e+00 -6.34350e-01  1.23758e+00
       H -8.09647e-01 -4.42014e-01 -1.50444e-01
13
# CELL(abcABC):   56.30000    56.30000    56.30000    90.00000    90.00000    90.00000  Step:         380  Bead:       0 positions{angstrom}  cell{angstrom}
       O  3.22172e-02  2.41331e+00 -1.27775e-01